LAMMPS (3 Mar 2020)
OMP_NUM_THREADS environment is not set. Defaulting to 1 thread. (src/comm.cpp:94)
  using 1 OpenMP thread(s) per MPI task
Reading restart file ...
  restart file = 3 Mar 2020, LAMMPS = 3 Mar 2020
  restoring atom style full from restart
  orthogonal box = (0.734121 0.734121 0.734121) to (33.2659 33.2659 33.2659)
  6 by 6 by 6 MPI processor grid
  restoring pair style hybrid/overlay from restart
  restoring bond style fene from restart
  27950 atoms
  8700 bonds
Finding 1-2 1-3 1-4 neighbors ...
  special bond factors lj:   0          1          1         
  special bond factors coul: 0          1          1         
  2 = max # of 1-2 neighbors
  6 = max # of special neighbors
  special bonds CPU = 2.47984 secs
  read_restart CPU = 2.60614 secs
Resetting global fix info from restart file:
  fix style: nvt, fix ID: pt
50 rigid bodies with 950 atoms
Resetting global fix info from restart file:
  fix style: rigid/nvt, fix ID: ri
System init for write_data ...
PPPM initialization ...
  using 12-bit tables for long-range coulomb (src/kspace.cpp:332)
  G vector (1/distance) = 1.16837
  grid = 96 96 96
  stencil order = 5
  estimated absolute RMS force accuracy = 0.000103477
  estimated relative force accuracy = 0.000103477
  using double precision FFTW3
  3d grid and FFT values/proc = 9261 4608
All restart file global fix info was re-assigned
Unused restart file peratom fix info:
  fix style: STORE, fix ID: par_COMPUTE_STORE
WARNING: Neighbor exclusions used with KSpace solver may give inconsistent Coulombic energies (src/neighbor.cpp:486)
Neighbor list info ...
  update every 1 steps, delay 0 steps, check yes
  max neighbors/atom: 2000, page size: 100000
  master list distance cutoff = 2.8
  ghost atom cutoff = 2.8
  binsize = 1.4, bins = 24 24 24
  2 neighbor lists, perpetual/occasional/extra = 2 0 0
  (1) pair lj/cut, perpetual
      attributes: half, newton on
      pair build: half/bin/newton
      stencil: half/bin/3d/newton
      bin: standard
  (2) pair coul/long, perpetual, skip from (1)
      attributes: half, newton on
      pair build: skip
      stencil: none
      bin: none
PPPM initialization ...
  using 12-bit tables for long-range coulomb (src/kspace.cpp:332)
  G vector (1/distance) = 1.16837
  grid = 96 96 96
  stencil order = 5
  estimated absolute RMS force accuracy = 0.000103477
  estimated relative force accuracy = 0.000103477
  using double precision FFTW3
  3d grid and FFT values/proc = 9261 4608
WARNING: Neighbor exclusions used with KSpace solver may give inconsistent Coulombic energies (src/neighbor.cpp:486)
Neighbor list info ...
  update every 1 steps, delay 0 steps, check yes
  max neighbors/atom: 2000, page size: 100000
  master list distance cutoff = 2.8
  ghost atom cutoff = 2.8
  binsize = 1.4, bins = 24 24 24
  2 neighbor lists, perpetual/occasional/extra = 2 0 0
  (1) pair lj/cut, perpetual
      attributes: half, newton on
      pair build: half/bin/newton
      stencil: half/bin/3d/newton
      bin: standard
  (2) pair coul/long, perpetual, skip from (1)
      attributes: half, newton on
      pair build: skip
      stencil: none
      bin: none
Setting up Verlet run ...
  Unit style    : lj
  Current step  : 12000000
  Time step     : 0.005
Per MPI rank memory allocation (min/avg/max) = 10.24 | 10.3 | 10.43 Mbytes
Step Temp Press Volume 
12000000   0.79863652 -0.019574115    34428.857 
12010000   0.79556982  -0.18763354    34428.857 
12020000   0.79833013  -0.14990728    34428.857 
12030000   0.80283528 -0.068986423    34428.857 
12040000   0.79625389 -0.077761778    34428.857 
12050000   0.81082883 -0.077931743    34428.857 
12060000   0.80805639  -0.12644626    34428.857 
12070000   0.79793229  -0.15737229    34428.857 
12080000   0.79923269  -0.13050985    34428.857 
12090000   0.79704822  -0.16745973    34428.857 
12100000   0.79703481  -0.11388939    34428.857 
12110000   0.80071938  -0.12843188    34428.857 
12120000   0.80056989  -0.12855598    34428.857 
12130000   0.80055609 -0.091952537    34428.857 
12140000   0.79907181  -0.10098857    34428.857 
12150000   0.80090571  -0.15981977    34428.857 
12160000   0.80000691  -0.19204964    34428.857 
12170000   0.79606496   -0.1283138    34428.857 
12180000   0.79872551  -0.14816234    34428.857 
12190000   0.80222261   -0.1068477    34428.857 
12200000   0.81447279  -0.11041514    34428.857 
12210000   0.79875228  -0.10902418    34428.857 
12220000   0.80027844  -0.14145179    34428.857 
12230000   0.78892471  -0.15141484    34428.857 
12240000   0.80474468 -0.077000965    34428.857 
12250000   0.80601749  -0.11802743    34428.857 
12260000   0.79598676  -0.07199766    34428.857 
12270000   0.80385677   -0.1232162    34428.857 
12280000   0.80438928  -0.13830242    34428.857 
12290000   0.78903817  -0.20320644    34428.857 
12300000   0.79142512 -0.095717646    34428.857 
12310000   0.80565962 -0.029094089    34428.857 
12320000   0.79390796  -0.15721374    34428.857 
12330000   0.80054835  -0.18472067    34428.857 
12340000   0.80082707  -0.10276096    34428.857 
12350000   0.79514052  -0.12427696    34428.857 
12360000   0.80174479 -0.095840459    34428.857 
12370000   0.80573375  -0.08965102    34428.857 
12380000   0.79829969 -0.061053449    34428.857 
12390000   0.79645143  -0.10988562    34428.857 
12400000   0.80104566 -0.094235768    34428.857 
12410000   0.80175243 -0.095789181    34428.857 
12420000   0.79577632   -0.1015157    34428.857 
12430000   0.79566393  -0.12406825    34428.857 
12440000   0.79436157 -0.085260046    34428.857 
12450000   0.80009806  -0.16317208    34428.857 
12460000   0.79945037  -0.12842977    34428.857 
12470000   0.81355163  -0.13661228    34428.857 
12480000   0.80495726  -0.18486871    34428.857 
12490000   0.80611327  -0.13978018    34428.857 
12500000   0.80256539 -0.060178897    34428.857 
12510000   0.79937882 -0.096268483    34428.857 
12520000   0.79627539  -0.17741945    34428.857 
12530000   0.80029701  -0.13825166    34428.857 
12540000   0.79748183  -0.13506059    34428.857 
12550000   0.80461844  -0.19655953    34428.857 
12560000   0.80434573 -0.072103561    34428.857 
12570000   0.80096752  -0.12069173    34428.857 
12580000   0.80138764  -0.13612074    34428.857 
12590000    0.7967893   -0.1365397    34428.857 
12600000   0.79473352 -0.067209799    34428.857 
12610000   0.80142142  -0.14387336    34428.857 
12620000   0.79384918    -0.129297    34428.857 
12630000   0.80080691  -0.18187431    34428.857 
12640000   0.80678629  -0.13831798    34428.857 
12650000   0.80566585 -0.083189447    34428.857 
12660000   0.80300942 -0.078427466    34428.857 
12670000   0.80834308  -0.11964062    34428.857 
12680000   0.79439088   -0.1802532    34428.857 
12690000   0.80049635 -0.036215495    34428.857 
12700000   0.80213551  -0.11639571    34428.857 
12710000   0.79905707  -0.13133539    34428.857 
12720000   0.79970473  -0.12192687    34428.857 
12730000   0.79968505  -0.13453896    34428.857 
12740000   0.79909516  -0.12027768    34428.857 
12750000   0.79545779  -0.12756339    34428.857 
12760000   0.79804981  -0.16085658    34428.857 
12770000   0.80099056  -0.11788846    34428.857 
12780000   0.80637143 -0.075793688    34428.857 
12790000   0.79915643 -0.095169131    34428.857 
12800000   0.79069613  -0.11279621    34428.857 
12810000   0.79984444  -0.20635752    34428.857 
12820000   0.80291553  -0.14022293    34428.857 
12830000   0.79896784  -0.10947978    34428.857 
12840000   0.80092023  -0.11121089    34428.857 
12850000   0.79976102 -0.079069247    34428.857 
12860000   0.79705409  -0.19415989    34428.857 
12870000   0.79778298  -0.20040884    34428.857 
12880000   0.80314769  -0.12849371    34428.857 
12890000   0.79898383  -0.18829451    34428.857 
12900000   0.80291341  -0.10319513    34428.857 
12910000   0.80630573  -0.12968481    34428.857 
12920000   0.80035693  -0.10961931    34428.857 
12930000   0.79980833  -0.15555068    34428.857 
12940000   0.79945027   -0.1576715    34428.857 
12950000    0.8011151  -0.17578705    34428.857 
12960000   0.80004163  -0.11583885    34428.857 
12970000   0.80389112  -0.08807033    34428.857 
12980000   0.79976212 -0.081480749    34428.857 
12990000   0.79997912 -0.080623518    34428.857 
13000000   0.79938161  -0.15249307    34428.857 
Loop time of 9724.29 on 216 procs for 1000000 steps with 27950 atoms

Performance: 44424.855 tau/day, 102.835 timesteps/s
99.9% CPU use with 216 MPI tasks x 1 OpenMP threads

MPI task timing breakdown:
Section |  min time  |  avg time  |  max time  |%varavg| %total
---------------------------------------------------------------
Pair    | 86.871     | 118.03     | 183.47     | 187.1 |  1.21
Bond    | 0.75384    | 1.9985     | 3.6373     |  44.2 |  0.02
Kspace  | 8658.4     | 8772.6     | 8864.2     |  49.6 | 90.21
Neigh   | 121        | 125.51     | 131.04     |  21.2 |  1.29
Comm    | 225.15     | 310.68     | 412.09     | 188.7 |  3.19
Output  | 0.01128    | 0.01445    | 0.039081   |   1.8 |  0.00
Modify  | 247.23     | 301.47     | 363.46     | 127.8 |  3.10
Other   |            | 93.98      |            |       |  0.97

Nlocal:    129.398 ave 191 max 102 min
Histogram: 11 66 49 41 15 11 8 8 4 3
Nghost:    956.403 ave 1170 max 836 min
Histogram: 24 34 34 35 36 23 15 12 2 1
Neighs:    4834.27 ave 9244 max 3137 min
Histogram: 35 70 35 34 10 11 6 6 6 3

Total # of neighbors = 1044202
Ave neighs/atom = 37.3596
Ave special neighs/atom = 0.62254
Neighbor list builds = 134407
Dangerous builds = 0
PPPM initialization ...
  using 12-bit tables for long-range coulomb (src/kspace.cpp:332)
  G vector (1/distance) = 1.16837
  grid = 96 96 96
  stencil order = 5
  estimated absolute RMS force accuracy = 0.000103477
  estimated relative force accuracy = 0.000103477
  using double precision FFTW3
  3d grid and FFT values/proc = 9261 4608
WARNING: Neighbor exclusions used with KSpace solver may give inconsistent Coulombic energies (src/neighbor.cpp:486)
Neighbor list info ...
  update every 1 steps, delay 0 steps, check yes
  max neighbors/atom: 2000, page size: 100000
  master list distance cutoff = 2.8
  ghost atom cutoff = 2.8
  binsize = 1.4, bins = 24 24 24
  12 neighbor lists, perpetual/occasional/extra = 2 10 0
  (1) pair lj/cut, perpetual
      attributes: half, newton on
      pair build: half/bin/newton
      stencil: half/bin/3d/newton
      bin: standard
  (2) pair coul/long, perpetual, skip from (1)
      attributes: half, newton on
      pair build: skip
      stencil: none
      bin: none
  (3) compute rdf, occasional, copy from (1)
      attributes: half, newton on
      pair build: copy
      stencil: none
      bin: none
  (4) compute rdf, occasional, copy from (1)
      attributes: half, newton on
      pair build: copy
      stencil: none
      bin: none
  (5) compute rdf, occasional, copy from (1)
      attributes: half, newton on
      pair build: copy
      stencil: none
      bin: none
  (6) compute rdf, occasional, copy from (1)
      attributes: half, newton on
      pair build: copy
      stencil: none
      bin: none
  (7) compute rdf, occasional, copy from (1)
      attributes: half, newton on
      pair build: copy
      stencil: none
      bin: none
  (8) compute rdf, occasional, copy from (1)
      attributes: half, newton on
      pair build: copy
      stencil: none
      bin: none
  (9) compute rdf, occasional, copy from (1)
      attributes: half, newton on
      pair build: copy
      stencil: none
      bin: none
  (10) compute rdf, occasional, copy from (1)
      attributes: half, newton on
      pair build: copy
      stencil: none
      bin: none
  (11) compute rdf, occasional, copy from (1)
      attributes: half, newton on
      pair build: copy
      stencil: none
      bin: none
  (12) compute rdf, occasional, copy from (1)
      attributes: half, newton on
      pair build: copy
      stencil: none
      bin: none
Setting up Verlet run ...
  Unit style    : lj
  Current step  : 0
  Time step     : 0.005
WARNING: One or more chunks do not contain all atoms in molecule (src/compute_chunk_atom.cpp:1163)
Per MPI rank memory allocation (min/avg/max) = 17.92 | 19.15 | 19.98 Mbytes
Step Temp Press PotEng KinEng E_pair E_bond TotEng 
       0   0.79938161  -0.31683731   0.77826345     1.162564   -5.6383025     6.416566    1.9408274 
   10000   0.80364842  -0.11064509   0.78606803    1.1687693   -5.6337667    6.4198347    1.9548374 
   20000   0.80431193 -0.089529614   0.78044481    1.1697343   -5.6351629    6.4156077    1.9501791 
   30000   0.80057146   -0.1414053   0.77069141    1.1642944   -5.6452957    6.4159871    1.9349858 
   40000   0.80015883  -0.16044274   0.77275955    1.1636943   -5.6434243    6.4161838    1.9364539 
   50000   0.80155894 -0.087132917   0.77979889    1.1657305   -5.6356674    6.4154663    1.9455294 
   60000   0.79783596  -0.12077338    0.7680308    1.1603161   -5.6459557    6.4139865    1.9283469 
   70000   0.81322132  -0.19632113   0.78259713    1.1826915    -5.633956    6.4165532    1.9652886 
   80000   0.80191072   -0.1912142   0.77304668    1.1662421   -5.6454112    6.4184579    1.9392888 
   90000   0.80124265  -0.10857627   0.77538104    1.1652706   -5.6380272    6.4134082    1.9406516 
  100000   0.79476549  -0.23340005   0.77048633    1.1558506   -5.6488372    6.4193236     1.926337 
  110000    0.7931582  -0.14897456   0.78054651    1.1535131    -5.637313    6.4178595    1.9340596 
  120000   0.80458596 -0.063804158   0.77761584    1.1701328   -5.6374813    6.4150972    1.9477487 
  130000   0.79628843  -0.10383395   0.77809679    1.1580655   -5.6379366    6.4160333    1.9361623 
  140000   0.80347393  -0.15423818    0.7757852    1.1685156   -5.6391047    6.4148899    1.9443008 
  150000   0.80397971  -0.15284174   0.77313787    1.1692511   -5.6458582    6.4189961     1.942389 
  160000   0.80148725  -0.17484449   0.76894245    1.1656263   -5.6476934    6.4166359    1.9345687 
  170000   0.80057725  -0.13119912   0.77095717    1.1643028   -5.6450324    6.4159896      1.93526 
  180000    0.7960838  -0.15683329   0.77820779    1.1577679   -5.6376097    6.4158175    1.9359757 
  190000   0.79862478  -0.13865918   0.76889548    1.1614633   -5.6442537    6.4131492    1.9303588 
  200000   0.80000141  -0.15780793   0.76829892    1.1634654   -5.6472226    6.4155215    1.9317643 
  210000   0.79829565  -0.16649735   0.78225609    1.1609846   -5.6348543    6.4171104    1.9432407 
  220000   0.80338047   -0.1023332    0.7789502    1.1683796      -5.6357    6.4146502    1.9473298 
  230000   0.80151459 -0.097916646   0.77261718     1.165666   -5.6426862    6.4153034    1.9382832 
  240000   0.79922756 -0.092071689   0.77618316      1.16234   -5.6400858     6.416269    1.9385231 
  250000    0.7972879  -0.13531915   0.78020895     1.159519   -5.6356803    6.4158893     1.939728 
  260000   0.80346067  -0.19261485   0.77499934    1.1684963   -5.6387556    6.4137549    1.9434956 
  270000   0.80644242  -0.10330207    0.7836387    1.1728327   -5.6317314    6.4153701    1.9564714 
  280000   0.80058906  -0.15001359   0.77726849      1.16432   -5.6407835     6.418052    1.9415885 
  290000   0.80313812  -0.11612845   0.77624558    1.1680272    -5.639792    6.4160375    1.9442728 
  300000   0.79661166  -0.12940453   0.77129851    1.1585356   -5.6413834    6.4126819    1.9298341 
  310000   0.79806308   -0.1054987   0.77528443    1.1606464   -5.6394102    6.4146947    1.9359308 
  320000    0.8031353   -0.2082417   0.77777196    1.1680231    -5.635798    6.4135699     1.945795 
  330000   0.80196116  -0.16291231   0.77822099    1.1663155   -5.6388041    6.4170251    1.9445365 
  340000   0.80386414 -0.065996289   0.77898996    1.1690831   -5.6369828    6.4159728     1.948073 
  350000   0.79229693  -0.07107069   0.78968265    1.1522605     -5.62743    6.4171126    1.9419432 
  360000   0.80560074  -0.14336021   0.77668139    1.1716087   -5.6418335    6.4185149      1.94829 
  370000     0.797144  -0.13513306   0.77803202    1.1593098   -5.6357599    6.4137919    1.9373418 
  380000   0.80028359  -0.10185946   0.77958694    1.1638758   -5.6368242    6.4164111    1.9434627 
  390000   0.80047298   -0.1291475   0.78182951    1.1641512   -5.6393721    6.4212016    1.9459807 
  400000   0.80292268  -0.11148973   0.77826323    1.1677139   -5.6386185    6.4168817    1.9459771 
  410000    0.7976884 -0.089645166   0.77119843    1.1601015    -5.645922    6.4171205    1.9312999 
  420000   0.79361026 -0.072086036   0.77488573    1.1541705   -5.6431424    6.4180281    1.9290563 
  430000   0.79300144 -0.090372609   0.77560042    1.1532851   -5.6427208    6.4183212    1.9288855 
  440000   0.79586413 -0.081979787   0.77680523    1.1574484   -5.6415286    6.4183338    1.9342536 
  450000   0.80079371  -0.10386759    0.7789405    1.1646176   -5.6403621    6.4193027    1.9435581 
  460000   0.79794754 -0.071285963   0.77958889    1.1604784   -5.6355114    6.4151002    1.9400673 
  470000   0.79803638  -0.10894659   0.77349479    1.1606076    -5.643973    6.4174678    1.9341024 
  480000   0.80171011  -0.10964597   0.77299137    1.1659504   -5.6429751    6.4159665    1.9389418 
  490000   0.80452844  -0.10638638   0.77168597    1.1700492   -5.6446184    6.4163043    1.9417351 
  500000   0.80308864  -0.16383041   0.76899561    1.1679552   -5.6490377    6.4180333    1.9369508 
  510000   0.80021417  -0.08152784   0.77098108    1.1637748   -5.6470714    6.4180525    1.9347559 
  520000    0.8024396 -0.068211872   0.77830513    1.1670113   -5.6383546    6.4166598    1.9453164 
  530000   0.80073966 -0.099960595   0.77852405     1.164539    -5.638547     6.417071    1.9430631 
  540000   0.80314781  -0.10583062   0.78044116    1.1680413   -5.6369132    6.4173544    1.9484824 
  550000     0.804939  -0.13517606   0.77288754    1.1706463   -5.6422567    6.4151443    1.9435338 
  560000   0.79746092  -0.14556845   0.77950351    1.1597707   -5.6368835     6.416387    1.9392742 
  570000   0.79601495  -0.10992683   0.77318209    1.1576678   -5.6391969     6.412379    1.9308499 
  580000   0.80057803  -0.11229284   0.78227299     1.164304   -5.6337216    6.4159945     1.946577 
  590000   0.80615254  -0.12227628   0.77564722    1.1724111   -5.6405647     6.416212    1.9480584 
  600000    0.7983493  -0.14411577   0.77563614    1.1610627   -5.6406331    6.4162692    1.9366988 
  610000   0.80772762   -0.1142021   0.77806234    1.1747018   -5.6383166     6.416379    1.9527642 
  620000   0.80361461  -0.19499329   0.76516376    1.1687202   -5.6472659    6.4124296    1.9338839 
  630000    0.8013477  -0.06174866   0.78835235    1.1654233   -5.6297958    6.4181482    1.9537757 
  640000   0.80235493 -0.093381374   0.78411398    1.1668882   -5.6332507    6.4173647    1.9510021 
  650000   0.79736783  -0.15275648   0.78283453    1.1596353   -5.6371682    6.4200028    1.9424698 
  660000   0.79952345  -0.14977948   0.78093341    1.1627703   -5.6366088    6.4175422    1.9437037 
  670000   0.79364925  -0.20908506   0.77253486    1.1542273   -5.6437078    6.4162427    1.9267621 
  680000    0.8017473  -0.16241751    0.7714559    1.1660045   -5.6419958    6.4134517    1.9374604 
  690000   0.80393203  -0.18978325   0.77314628    1.1691818   -5.6395469    6.4126932    1.9423281 
  700000   0.79824077  -0.12512115   0.77938553    1.1609048   -5.6378775     6.417263    1.9402904 
  710000   0.80239748  -0.12961758   0.77514632    1.1669501   -5.6428544    6.4180007    1.9420964 
  720000   0.79936832  -0.11108013   0.79074936    1.1625447   -5.6272687    6.4180181     1.953294 
  730000   0.80227451  -0.16316654   0.78116141    1.1667712   -5.6389507    6.4201121    1.9479326 
  740000   0.80563089  -0.15626995   0.78115196    1.1716525   -5.6341955    6.4153474    1.9528044 
  750000   0.79795262  -0.15232129   0.77476164    1.1604858   -5.6409066    6.4156683    1.9352474 
  760000   0.80076877  -0.15972687   0.78140947    1.1645814   -5.6362616     6.417671    1.9459908 
  770000   0.80960121 -0.060128321   0.78151985    1.1774267   -5.6367721    6.4182919    1.9589465 
  780000   0.80501141  -0.18690135   0.77381654    1.1707516   -5.6391209    6.4129374    1.9445681 
  790000   0.79519984  -0.13386944   0.77978669    1.1564823   -5.6393518    6.4191385     1.936269 
  800000    0.7985926  -0.13028556   0.77843018    1.1614165   -5.6369662    6.4153964    1.9398467 
  810000   0.80013556  -0.04690701   0.78044748    1.1636605     -5.63575    6.4161975     1.944108 
  820000   0.80558575   -0.0893122   0.77246091    1.1715868   -5.6440327    6.4164936    1.9440477 
  830000   0.80879315  -0.07231036   0.78248157    1.1762515   -5.6320561    6.4145376     1.958733 
  840000   0.80203778  -0.12584483   0.77007021    1.1664269   -5.6462014    6.4162716    1.9364971 
  850000   0.79972937  -0.15898522   0.77476259    1.1630697   -5.6412773    6.4160399    1.9378323 
  860000   0.80179668   -0.1531747   0.76900712    1.1660763   -5.6510334    6.4200405    1.9350834 
  870000    0.8042697  -0.12835625   0.77011539    1.1696729   -5.6453602    6.4154756    1.9397883 
  880000   0.80267651 -0.082290073    0.7741275    1.1673559   -5.6425069    6.4166344    1.9414834 
  890000   0.80587475   -0.1427568   0.76903213    1.1720071   -5.6464993    6.4155314    1.9410393 
  900000   0.79836691  -0.10338214    0.7727187    1.1610883   -5.6446983     6.417417     1.933807 
  910000   0.80451664  -0.11568753    0.7731945     1.170032   -5.6410842    6.4142787    1.9432265 
  920000   0.80317863  -0.22738315   0.77140091    1.1680861   -5.6467514    6.4181523     1.939487 
  930000   0.80505354 -0.054087231   0.77748327    1.1708128   -5.6346935    6.4121767    1.9482961 
  940000   0.80004072 -0.049880524   0.78296422    1.1635225   -5.6334162    6.4163804    1.9464868 
  950000   0.79719795  -0.16474721   0.78054842    1.1593882   -5.6331151    6.4136635    1.9399366 
  960000   0.79714878  -0.12080498   0.77463215    1.1593167   -5.6400229     6.414655    1.9339489 
  970000   0.79136343  -0.13198411   0.77343023    1.1509029   -5.6448397      6.41827    1.9243331 
  980000   0.79437143  -0.09667104   0.77939504    1.1552775   -5.6375181    6.4169131    1.9346726 
  990000   0.80164458  -0.10463865   0.78878804    1.1658551   -5.6294464    6.4182345    1.9546431 
 1000000   0.79873392  -0.14065724   0.77536728     1.161622   -5.6428537     6.418221    1.9369893 
 1010000   0.80732343  -0.08853126   0.77648419     1.174114    -5.641183    6.4176672    1.9505982 
 1020000   0.80096307  -0.16086641   0.77082722     1.164864    -5.643807    6.4146342    1.9356912 
 1030000   0.79724961  -0.14578111   0.77084156    1.1594633   -5.6483153    6.4191569    1.9303049 
 1040000   0.79917221   -0.1556905   0.77277906    1.1622595   -5.6429731    6.4157521    1.9350385 
 1050000   0.80035682  -0.12860856   0.77933397    1.1639823   -5.6382491    6.4175831    1.9433162 
 1060000   0.79925512  -0.10316954   0.77686499      1.16238   -5.6406273    6.4174923     1.939245 
 1070000   0.79209741  -0.07337622   0.78085154    1.1519704   -5.6336696    6.4145212    1.9328219 
 1080000   0.80693804  -0.17963103   0.76736327    1.1735535   -5.6479172    6.4152805    1.9409168 
 1090000   0.80851568 -0.075145427    0.7806632    1.1758479   -5.6354505    6.4161137    1.9565111 
 1100000   0.79555747  -0.15194443     0.777306    1.1570024   -5.6420375    6.4193435    1.9343084 
 1110000   0.80646354  -0.19009138   0.77279403    1.1728634    -5.646582     6.419376    1.9456575 
 1120000   0.79763086  -0.10160595   0.76689646    1.1600178   -5.6463133    6.4132098    1.9269143 
 1130000   0.79939635  -0.16468201   0.77501438    1.1625854   -5.6422542    6.4172686    1.9375998 
 1140000   0.80537757 -0.052607085   0.76916881    1.1712841    -5.648593    6.4177618    1.9404529 
 1150000   0.79320545   -0.2485405   0.77277015    1.1535818   -5.6429567    6.4157268     1.926352 
 1160000   0.79299988  -0.11730648   0.77158488    1.1532828   -5.6438458    6.4154306    1.9248677 
 1170000   0.79884526  -0.10368741   0.76474398     1.161784   -5.6489272    6.4136711    1.9265279 
 1180000   0.79691499  -0.17459604   0.77208612    1.1589767   -5.6410572    6.4131433    1.9310628 
 1190000   0.79863207 -0.081109816   0.77978733    1.1614739   -5.6405839    6.4203712    1.9412612 
 1200000   0.80083622  -0.16130768   0.77765574    1.1646795   -5.6372612    6.4149169    1.9423352 
 1210000   0.80112807 -0.081911055   0.77990076    1.1651039   -5.6375431    6.4174438    1.9450047 
 1220000   0.79912708  -0.12084703   0.77859107    1.1621938   -5.6421285    6.4207195    1.9407849 
 1230000   0.80249252 -0.065210185   0.78412935    1.1670883   -5.6336633    6.4177926    1.9512176 
 1240000   0.80091284  -0.16863174   0.77941827    1.1647909   -5.6396728     6.419091    1.9442092 
 1250000   0.80299915 -0.094012486   0.78160002    1.1678251   -5.6337522    6.4153523    1.9494251 
 1260000   0.80122472  -0.11744172    0.7785422    1.1652445   -5.6391245    6.4176667    1.9437867 
 1270000   0.79433788  -0.15242661   0.77803025    1.1552287   -5.6369563    6.4149865     1.933259 
 1280000   0.79793076  -0.08404936   0.77242009     1.160454   -5.6446572    6.4170772    1.9328741 
 1290000    0.8001677  -0.15548608   0.78053017    1.1637072   -5.6373002    6.4178304    1.9442374 
 1300000    0.8015264  -0.17846673   0.77312358    1.1656832   -5.6457896    6.4189132    1.9388068 
 1310000   0.79545806  -0.17547902   0.76938052    1.1568578   -5.6454074     6.414788    1.9262384 
 1320000    0.8027368  -0.11216374   0.77944263    1.1674435   -5.6371841    6.4166268    1.9468862 
 1330000   0.80143595  -0.10849597   0.78055058    1.1655517   -5.6348493    6.4153999    1.9461022 
 1340000    0.7947452  -0.17115684   0.76799901    1.1558211   -5.6480372    6.4160362    1.9238201 
 1350000    0.8038473  -0.12995199   0.76693685    1.1690586   -5.6441081    6.4110449    1.9359954 
 1360000   0.80602769  -0.16368509   0.77254145    1.1722296   -5.6455664    6.4181079     1.944771 
 1370000   0.79392388  -0.18177951   0.76770218    1.1546266   -5.6509717    6.4186739    1.9223288 
 1380000   0.79851145 -0.048795758   0.77574655    1.1612985   -5.6421099    6.4178564     1.937045 
 1390000   0.79652896  -0.11841882   0.77768079    1.1584153   -5.6389854    6.4166662    1.9360961 
 1400000   0.79937802  -0.10816563   0.76299563    1.1625588   -5.6504028    6.4133985    1.9255544 
 1410000   0.80450779  -0.11737461   0.77703977    1.1700191   -5.6385891    6.4156288    1.9470589 
 1420000   0.79642722  -0.14202444    0.7707657    1.1582673   -5.6443833     6.415149     1.929033 
 1430000   0.80173528 -0.084814509   0.78521384     1.165987   -5.6355867    6.4208005    1.9512008 
 1440000   0.80103648  -0.11599353   0.77033939    1.1649707   -5.6470793    6.4174187    1.9353101 
 1450000   0.79627603 -0.064811725    0.7690195    1.1580474   -5.6457078    6.4147273    1.9270669 
 1460000   0.80421942  -0.15497509   0.77037318    1.1695997   -5.6464566    6.4168298    1.9399729 
 1470000   0.79173008    -0.153359   0.77504877    1.1514361   -5.6414587    6.4165074    1.9264849 
 1480000   0.80295284  -0.11447142    0.7822504    1.1677577   -5.6363331    6.4185835    1.9500081 
 1490000   0.80134537  -0.10663391   0.77364419    1.1654199   -5.6437571    6.4174013    1.9390641 
 1500000   0.79415277  -0.15319872   0.77190276    1.1549595   -5.6425123     6.414415    1.9268623 
 1510000   0.79930417  -0.11398152   0.76942531    1.1624514   -5.6463992    6.4158245    1.9318767 
 1520000   0.79738559   -0.1143927   0.77211263    1.1596611   -5.6459725    6.4180851    1.9317737 
 1530000   0.79614685 -0.094203467   0.77566628    1.1578596    -5.641071    6.4167373    1.9335259 
 1540000   0.80015305 -0.074982848   0.77635061    1.1636859    -5.641574    6.4179246    1.9400365 
 1550000   0.80193777  -0.11724664    0.7631554    1.1662815   -5.6488061    6.4119615    1.9294369 
 1560000   0.80223822   -0.1613635   0.77244071    1.1667184   -5.6436887    6.4161294    1.9391591 
 1570000   0.80269062  -0.10880656   0.78158494    1.1673764   -5.6333164    6.4149013    1.9489613 
 1580000   0.79404927  -0.14494308   0.77194888     1.154809   -5.6420814    6.4140303    1.9267579 
 1590000   0.79680715  -0.11280117   0.76989741    1.1588199   -5.6448734    6.4147708    1.9287173 
 1600000   0.79970407  -0.14472908   0.77745491    1.1630329   -5.6408522    6.4183071    1.9404879 
 1610000   0.79729486  -0.12335669    0.7824203    1.1595292    -5.639273    6.4216933    1.9419495 
 1620000   0.79350009 -0.077610098   0.77142242    1.1540103   -5.6439809    6.4154033    1.9254327 
 1630000   0.79769263  -0.10633053   0.77194263    1.1601076   -5.6428597    6.4148023    1.9320503 
 1640000   0.79995487   -0.1510585   0.77328099    1.1633977    -5.639808     6.413089    1.9366787 
 1650000   0.80889583  -0.21492098   0.77132857    1.1764008   -5.6462333    6.4175619    1.9477294 
 1660000   0.79640466 -0.081447616   0.77264433    1.1582345   -5.6445546    6.4171989    1.9308788 
 1670000   0.80112795  -0.11881273    0.7673065    1.1651037   -5.6462306    6.4135371    1.9324102 
 1680000   0.80293785  -0.10314327   0.77288193    1.1677359   -5.6446375    6.4175195    1.9406179 
 1690000   0.80115363 -0.094435905   0.78297457    1.1651411   -5.6341583    6.4171328    1.9481156 
 1700000   0.80585975  -0.12225027   0.76987406    1.1719853   -5.6476522    6.4175263    1.9418594 
 1710000   0.80480865  -0.10669916   0.77160927    1.1704567   -5.6470363    6.4186456    1.9420659 
 1720000   0.80308671  -0.14342038   0.76862352    1.1679524   -5.6493207    6.4179443    1.9365759 
 1730000   0.80510216  -0.16632178   0.76847894    1.1708835   -5.6469489    6.4154279    1.9393625 
 1740000   0.79929834  -0.21120485   0.76543343    1.1624429   -5.6516043    6.4170377    1.9278763 
 1750000   0.79978693 -0.082700127   0.77096598    1.1631535   -5.6459588    6.4169248    1.9341194 
 1760000   0.79768179  -0.17677894   0.77042266    1.1600919    -5.648009    6.4184317    1.9305145 
 1770000   0.79414297 -0.075673902    0.7738966    1.1549453   -5.6395352    6.4134318    1.9288419 
 1780000   0.80661271  -0.19768866   0.76692673    1.1730804   -5.6493235    6.4162502    1.9400071 
 1790000   0.79799053  -0.12070375   0.77879708    1.1605409   -5.6372328    6.4160299     1.939338 
 1800000   0.80630528  -0.12950048   0.76679987    1.1726333   -5.6488418    6.4156417    1.9394332 
 1810000   0.79879671 -0.063733898   0.77454812    1.1617133   -5.6423257    6.4168738    1.9362615 
 1820000   0.79787802 -0.091361437   0.76808376    1.1603773   -5.6466114    6.4146952     1.928461 
 1830000   0.79954693  -0.18747979   0.76775507    1.1628044   -5.6484688    6.4162239    1.9305595 
 1840000   0.80355933 -0.095660633   0.77580461    1.1686398   -5.6411088    6.4169134    1.9444444 
 1850000   0.80665036 -0.059624832   0.76689076    1.1731351    -5.646012    6.4129028    1.9400259 
 1860000   0.79778064 -0.082853038   0.76947553    1.1602356   -5.6428466    6.4123221    1.9297112 
 1870000   0.79366145   -0.1556745   0.75561104     1.154245   -5.6606547    6.4162658     1.909856 
 1880000   0.80280666  -0.15518314   0.76420854    1.1675451   -5.6491328    6.4133413    1.9317537 
 1890000   0.80596824  -0.12380016   0.78150203    1.1721431   -5.6357212    6.4172232    1.9536451 
 1900000   0.79725296  -0.06794588   0.77497022    1.1594682   -5.6421836    6.4171539    1.9344384 
 1910000   0.79597327  -0.15625426   0.76894841    1.1576071   -5.6441707    6.4131191    1.9265556 
 1920000   0.79841988    -0.205697   0.76645086    1.1611653   -5.6487679    6.4152187    1.9276162 
 1930000   0.80409955 -0.096799132    0.7809373    1.1694254     -5.63685    6.4177873    1.9503627 
 1940000   0.79890199  -0.12537239    0.7730139    1.1618665   -5.6450378    6.4180517    1.9348804 
 1950000   0.80172081 -0.075174409   0.77374789     1.165966   -5.6449609    6.4187088    1.9397138 
 1960000   0.80073484  -0.11170062    0.7647682     1.164532   -5.6501021    6.4148703    1.9293002 
 1970000    0.7894087 -0.092651299   0.76669923    1.1480601   -5.6483723    6.4150716    1.9147593 
 1980000   0.80224425 -0.069735206   0.76670565    1.1667272   -5.6458111    6.4125167    1.9334329 
 1990000   0.79625412  -0.24802391   0.76057059    1.1580156   -5.6550087    6.4155793    1.9185862 
 2000000   0.80472897  -0.08864573   0.77901764    1.1703408   -5.6381058    6.4171235    1.9493584 
 2010000   0.79887761  -0.12016811    0.7673403     1.161831   -5.6473368    6.4146771    1.9291713 
 2020000   0.79522564  -0.12798069   0.77062764    1.1565198   -5.6472667    6.4178943    1.9271475 
 2030000   0.80173657 -0.092534824   0.76654889    1.1659889   -5.6468328    6.4133817    1.9325378 
 2040000   0.80850431  -0.20079349   0.76222354    1.1758314   -5.6541291    6.4163526    1.9380549 
 2050000   0.80345327   -0.1280772   0.77380131    1.1684855   -5.6394646    6.4132659    1.9422868 
 2060000   0.79623605   -0.1257682   0.76781404    1.1579893   -5.6466619     6.414476    1.9258033 
 2070000    0.7997268   -0.1195306   0.77064712     1.163066   -5.6452919     6.415939    1.9337131 
 2080000   0.79908941  -0.12773701    0.7684004     1.162139   -5.6475405    6.4159409    1.9305394 
 2090000   0.79558144  -0.18942228    0.7737447    1.1570373   -5.6442102    6.4179549     1.930782 
 2100000   0.79865203  -0.12742735   0.77300243    1.1615029   -5.6443483    6.4173507    1.9345054 
 2110000   0.79679846 -0.074377205   0.77994071    1.1588072   -5.6361361    6.4160768    1.9387479 
 2120000   0.80026066  -0.12438603    0.7669783    1.1638424   -5.6495453    6.4165236    1.9308207 
 2130000   0.80088721  -0.18606062   0.76758917    1.1647536   -5.6501954    6.4177846    1.9323428 
 2140000    0.7979516  -0.13469201   0.75997138    1.1604843    -5.655139    6.4151104    1.9204557 
 2150000   0.80193339   -0.1064166    0.7706321    1.1662751   -5.6453127    6.4159448    1.9369072 
 2160000   0.80088938  -0.11486841   0.77241133    1.1647568   -5.6436123    6.4160236    1.9371681 
 2170000   0.79213347  -0.21060765    0.7601936    1.1520228    -5.654765    6.4149586    1.9122164 
 2180000   0.79849817  -0.16559965   0.76819707    1.1612792    -5.649421     6.417618    1.9294762 
 2190000   0.79899107  -0.14255654   0.76933134     1.161996   -5.6475771    6.4169085    1.9313273 
 2200000     0.791613  -0.15818819   0.76199631    1.1512659   -5.6514309    6.4134273    1.9132622 
 2210000   0.79942222 -0.057930168   0.76991696     1.162623   -5.6472253    6.4171423      1.93254 
 2220000   0.80039963  -0.13801529    0.7708429    1.1640445   -5.6444592    6.4153021    1.9348874 
 2230000   0.80294702  -0.16433921   0.77048882    1.1677493    -5.645619    6.4161079    1.9382381 
 2240000    0.7999029  -0.21942148   0.77256373    1.1633221   -5.6438143     6.416378    1.9358858 
 2250000   0.79426203  -0.11249597   0.77078179    1.1551184   -5.6475494    6.4183312    1.9259002 
 2260000   0.80006981  -0.13698615   0.76824998    1.1635649    -5.643492     6.411742    1.9318148 
 2270000   0.80109845  -0.16663921   0.76542216    1.1650608   -5.6503261    6.4157483     1.930483 
 2280000   0.79792387  -0.12868217     0.781599     1.160444   -5.6363919    6.4179909     1.942043 
 2290000    0.7965698  -0.11793478   0.77299297    1.1584747    -5.647365     6.420358    1.9314677 
 2300000   0.80149548  -0.15534845   0.76551191    1.1656382   -5.6473829    6.4128948    1.9311502 
 2310000   0.79990691  -0.16286619   0.77193253    1.1633279   -5.6476593    6.4195918    1.9352605 
 2320000   0.79893483  -0.12671906   0.76623897    1.1619142   -5.6510329    6.4172719    1.9281532 
 2330000   0.80162135  -0.10876229   0.77145083    1.1658213   -5.6454272     6.416878    1.9372721 
 2340000   0.80249191  -0.18089032   0.77220707    1.1670874   -5.6443811    6.4165882    1.9392945 
 2350000   0.79297158 -0.068779387   0.76377267    1.1532417   -5.6529205    6.4166932    1.9170144 
 2360000   0.79858255 -0.097583645   0.76325031    1.1614019   -5.6519467    6.4151971    1.9246522 
 2370000   0.79724636    -0.113148   0.76646339    1.1594586   -5.6486986     6.415162     1.925922 
 2380000   0.79991103  -0.10665784   0.77059745    1.1633339   -5.6465205    6.4171179    1.9339314 
 2390000   0.79697444  -0.15439568    0.7737505    1.1590632   -5.6431794    6.4169299    1.9328137 
 2400000   0.80213339 -0.088298079   0.76653056     1.166566   -5.6496028    6.4161334    1.9330965 
 2410000   0.80164382   -0.1498081   0.76095299     1.165854   -5.6539215    6.4148745     1.926807 
 2420000   0.80164939  -0.10645926   0.76680946    1.1658621   -5.6467718    6.4135812    1.9326715 
 2430000   0.79865968    -0.154717   0.76911987    1.1615141   -5.6502287    6.4193486    1.9306339 
 2440000   0.80091546  -0.13359339   0.77009968    1.1647947   -5.6467904    6.4168901    1.9348944 
 2450000    0.8025818  -0.15719658   0.76126247    1.1672181   -5.6540426    6.4153051    1.9284806 
 2460000   0.79749155   -0.1514804   0.75926402    1.1598152   -5.6531863    6.4124503    1.9190792 
 2470000   0.79836595 -0.019517605   0.77114972    1.1610869    -5.646854    6.4180038    1.9322366 
 2480000   0.79584959  -0.17598454   0.78005118    1.1574273   -5.6347951    6.4148463    1.9374784 
 2490000   0.79494052  -0.15295385   0.77457721    1.1561052   -5.6434569    6.4180342    1.9306824 
 2500000   0.79337786  -0.13441884   0.77297972    1.1538326   -5.6408973     6.413877    1.9268123 
 2510000   0.80021485 -0.094902394   0.77687091    1.1637758   -5.6425793    6.4194502    1.9406467 
 2520000   0.80025541 -0.098571841   0.76464373    1.1638348   -5.6507139    6.4153576    1.9284785 
 2530000   0.79569335   -0.1652153   0.76941115       1.1572   -5.6483519    6.4177631    1.9266112 
 2540000   0.80571573 -0.076966915   0.76434091    1.1717759   -5.6487681     6.413109    1.9361168 
 2550000   0.80283357   -0.1032426   0.76432663    1.1675843   -5.6491855    6.4135121    1.9319109 
 2560000   0.79874841   -0.1537079    0.7666131    1.1616431   -5.6506129     6.417226    1.9282562 
 2570000   0.80064052 -0.076699871   0.77296297    1.1643949    -5.645301    6.4182639    1.9373578 
 2580000   0.79826399  -0.14039234   0.77123565    1.1609386   -5.6459875    6.4172232    1.9321742 
 2590000   0.79801433  -0.15442776    0.7612391    1.1605755   -5.6532236    6.4144627    1.9218146 
 2600000    0.8048529 -0.075610996   0.77209894     1.170521   -5.6436443    6.4157432      1.94262 
 2610000   0.80250986  -0.14834463   0.75994353    1.1671135   -5.6587149    6.4186584     1.927057 
 2620000   0.79805626  -0.16887083    0.7691517    1.1606365   -5.6481628    6.4173145    1.9297882 
 2630000    0.7966337  -0.11384105   0.76493459    1.1585676   -5.6504005    6.4153351    1.9235022 
 2640000   0.80372678  -0.11254604   0.76409146    1.1688833   -5.6536112    6.4177027    1.9329747 
 2650000   0.79443144  -0.11536731   0.76991315    1.1553648   -5.6461308    6.4160439     1.925278 
 2660000   0.80215853  -0.10524821   0.76120242    1.1666025   -5.6536186     6.414821     1.927805 
 2670000   0.80100695  -0.19182057   0.76375985    1.1649278     -5.64927    6.4130299    1.9286876 
 2680000   0.80390295  -0.13317994   0.76207587    1.1691395   -5.6513752    6.4134511    1.9312154 
 2690000   0.79899116  -0.14895839   0.77531112    1.1619961    -5.644053    6.4193641    1.9373073 
 2700000   0.80142356  -0.11252621   0.76713933    1.1655337   -5.6478423    6.4149817     1.932673 
 2710000   0.80425276  -0.19088926   0.76397332    1.1696482   -5.6501259    6.4140992    1.9336216 
 2720000   0.80841932  -0.17606652   0.76561537    1.1757078   -5.6502247    6.4158401    1.9413232 
 2730000   0.80226471 -0.082780804    0.7783361     1.166757   -5.6410534    6.4193895    1.9450931 
 2740000   0.80112152  -0.18045171   0.76605022    1.1650944   -5.6476629    6.4137131    1.9311446 
 2750000    0.8056749  -0.10197512    0.7621109    1.1717165   -5.6542876    6.4163985    1.9338274 
 2760000   0.80084918  -0.12507135   0.77072958    1.1646983   -5.6478366    6.4185661    1.9354279 
 2770000   0.79879424 -0.087267385   0.77592772    1.1617098    -5.643443    6.4193707    1.9376375 
 2780000   0.79753998  -0.11717029   0.77204994    1.1598856   -5.6439096    6.4159595    1.9319356 
 2790000   0.79905392  -0.11220471   0.76619378    1.1620874   -5.6505461    6.4167399    1.9282812 
 2800000   0.80357825 -0.075875501   0.76880907    1.1686673   -5.6428452    6.4116542    1.9374763 
 2810000   0.80039207 -0.040102983   0.76754618    1.1640335   -5.6471071    6.4146533    1.9315797 
 2820000   0.81134392   -0.1232633   0.76344907    1.1799611   -5.6512216    6.4146707    1.9434102 
 2830000   0.79983696 -0.083174358   0.78093206    1.1632262   -5.6352932    6.4162253    1.9441583 
 2840000   0.79588506  -0.13247456   0.77488299    1.1574788   -5.6411021     6.415985    1.9323618 
 2850000   0.80289607  -0.18434384   0.76418223    1.1676752   -5.6519763    6.4161586    1.9318574 
 2860000   0.79974795  -0.12272708   0.77415893    1.1630968   -5.6414557    6.4156146    1.9372557 
 2870000   0.80283322  -0.13038058   0.76819001    1.1675838   -5.6492714    6.4174614    1.9357738 
 2880000   0.80390993  -0.16867231   0.77362422    1.1691496   -5.6419109    6.4155351    1.9427739 
 2890000   0.80229582  -0.14716883   0.77483642    1.1668022   -5.6450948    6.4199312    1.9416386 
 2900000   0.79755403  -0.16650672   0.76330641    1.1599061    -5.651737    6.4150434    1.9232125 
 2910000   0.80225653  -0.16402114   0.77257416    1.1667451   -5.6430101    6.4155842    1.9393192 
 2920000   0.79898465  -0.14833369   0.77425688    1.1619867   -5.6450551     6.419312    1.9362436 
 2930000   0.80884936 -0.068236618   0.77592091    1.1763332   -5.6431551     6.419076    1.9522541 
 2940000   0.79966908  -0.10504102   0.77079392    1.1629821   -5.6460152    6.4168091     1.933776 
 2950000   0.80348144  -0.12540692   0.77020595    1.1685265   -5.6462809    6.4164869    1.9387324 
 2960000   0.80149619 -0.068955167   0.77093567    1.1656393   -5.6475299    6.4184656     1.936575 
 2970000   0.80344427 -0.029264208   0.77821524    1.1684724   -5.6379646    6.4161799    1.9466877 
 2980000   0.79762832  -0.12930334   0.76167835    1.1600141   -5.6536662    6.4153446    1.9216925 
 2990000   0.80363309 -0.068636087   0.76521238     1.168747   -5.6487558    6.4139682    1.9339594 
 3000000   0.79433526  -0.13875916   0.76540871    1.1552249   -5.6551904    6.4205991    1.9206336 
 3010000    0.7956648  -0.17939446   0.76675181    1.1571585   -5.6504152     6.417167    1.9239103 
 3020000   0.80247141 -0.096297254   0.77193231    1.1670576   -5.6436891    6.4156214    1.9389899 
 3030000   0.80746126  -0.13826115    0.7638678    1.1743145    -5.651551    6.4154188    1.9381823 
 3040000   0.79589059  -0.16037811   0.76380867    1.1574869   -5.6533326    6.4171412    1.9212956 
 3050000   0.80024153  -0.17318948   0.76064505    1.1638146   -5.6536959     6.414341    1.9244596 
 3060000   0.80188746 -0.070510767   0.77568883    1.1662083   -5.6417274    6.4174163    1.9418971 
 3070000   0.80738002  -0.15405025   0.76693964    1.1741963   -5.6510247    6.4179643    1.9411359 
 3080000   0.79578454 -0.077457283   0.77069177    1.1573327    -5.645131    6.4158227    1.9280244 
 3090000   0.80171406  -0.11523921   0.76933116    1.1659561   -5.6471729     6.416504    1.9352873 
 3100000   0.80362206  -0.11661283   0.77379031     1.168731   -5.6395773    6.4133676    1.9425213 
 3110000   0.80318073  -0.15633522   0.76688775    1.1680892   -5.6507768    6.4176646    1.9349769 
 3120000   0.79340726  -0.15087556   0.76103303    1.1538753   -5.6526175    6.4136506    1.9149083 
 3130000   0.79868369  -0.17809121   0.76259268     1.161549   -5.6503704     6.412963    1.9241417 
 3140000   0.79689023  -0.13689795   0.76369967    1.1589407     -5.65074    6.4144397    1.9226404 
 3150000   0.79961556  -0.18387003   0.76097361    1.1629042   -5.6561391    6.4171128    1.9238778 
 3160000   0.79953038  -0.15479152   0.75962585    1.1627803   -5.6552308    6.4148566    1.9224062 
 3170000   0.80308248  -0.12934871   0.76374721    1.1679463   -5.6571811    6.4209283    1.9316935 
 3180000   0.80073713  -0.12094525   0.76144043    1.1645354   -5.6560774    6.4175178    1.9259758 
 3190000   0.80419379  -0.16700332   0.76367883    1.1695625   -5.6531837    6.4168625    1.9332413 
 3200000   0.80530779 -0.097782679   0.76788538    1.1711826   -5.6494692    6.4173546     1.939068 
 3210000   0.79686891  -0.13031855   0.75849822    1.1589097   -5.6586061    6.4171043    1.9174079 
 3220000   0.80575087 -0.066792878   0.76435066     1.171827   -5.6491951    6.4135458    1.9361776 
 3230000   0.80256875  -0.11475587   0.76835098    1.1671991   -5.6475369    6.4158879    1.9355501 
 3240000    0.8008411  -0.10755405   0.76602766    1.1646866   -5.6482528    6.4142804    1.9307142 
 3250000     0.798699  -0.16242224   0.76563769    1.1615712   -5.6498028    6.4154405    1.9272089 
 3260000   0.80096406  -0.11395243   0.76797411    1.1648654   -5.6504468    6.4184209    1.9328395 
 3270000   0.79397637  -0.10849093   0.77712546     1.154703    -5.641479    6.4186044    1.9318284 
 3280000   0.80523732  -0.18057967   0.75362758    1.1710801   -5.6603786    6.4140062    1.9247077 
 3290000   0.79789087  -0.12081522   0.76932961     1.160396   -5.6481397    6.4174693    1.9297256 
 3300000   0.80946286  -0.17618934   0.76034355    1.1772254   -5.6579037    6.4182473     1.937569 
 3310000   0.80046364 -0.083921722   0.77086613    1.1641376    -5.641981    6.4128471    1.9350037 
 3320000    0.7933719  -0.13570867   0.76328895    1.1538239   -5.6534317    6.4167207    1.9171128 
 3330000    0.8066386  -0.11833762   0.75947259     1.173118   -5.6579519    6.4174245    1.9325906 
 3340000    0.8039758 -0.088245359   0.76457529    1.1692454   -5.6510519    6.4156272    1.9338207 
 3350000   0.79770833  -0.15444139   0.76137244    1.1601305    -5.655431    6.4168034    1.9215029 
 3360000   0.80092084 -0.068474735   0.76507963    1.1648025   -5.6505961    6.4156757    1.9298822 
 3370000   0.80448827  -0.11428522   0.77414695    1.1699907   -5.6432653    6.4174122    1.9441377 
 3380000   0.79529936  -0.10788792   0.77259326     1.156627   -5.6442913    6.4168846    1.9292203 
 3390000   0.80094931 -0.086612674   0.76418033    1.1648439   -5.6506349    6.4148152    1.9290243 
 3400000   0.79648359 -0.077723061   0.77081406    1.1583493   -5.6469061    6.4177202    1.9291634 
 3410000   0.80482795  -0.16587346   0.76937745    1.1704848   -5.6496364    6.4190139    1.9398622 
 3420000   0.80236738  -0.12057099   0.76946097    1.1669063   -5.6471837    6.4166446    1.9363672 
 3430000    0.8004923  -0.20452652   0.76808661    1.1641793   -5.6502916    6.4183782    1.9322659 
 3440000   0.79357099  -0.17923464      0.75844    1.1541134    -5.659053     6.417493    1.9125534 
 3450000   0.79950495  -0.10886707   0.77585846    1.1627434   -5.6404539    6.4163124    1.9386018 
 3460000   0.79882276  -0.10502077    0.7672885    1.1617512    -5.649282    6.4165705    1.9290397 
 3470000   0.79620443   -0.1470822   0.76458893    1.1579433   -5.6527489    6.4173378    1.9225323 
 3480000   0.79812467   -0.1923181   0.76444619     1.160736   -5.6529437    6.4173899    1.9251822 
 3490000   0.79815931  -0.13915642    0.7686648    1.1607864   -5.6498183    6.4184831    1.9294512 
 3500000   0.79436297  -0.07909729   0.76216717    1.1552652   -5.6536884    6.4158556    1.9174324 
 3510000   0.80548429 -0.071084426    0.7645314    1.1714393   -5.6486813    6.4132127    1.9359707 
 3520000   0.80584165  -0.10174618   0.76510371     1.171959    -5.651091    6.4161947    1.9370627 
 3530000   0.79649783  -0.17478865   0.76101443      1.15837   -5.6544958    6.4155103    1.9193845 
 3540000   0.80509525  -0.12406869   0.77163408    1.1708735   -5.6459573    6.4175914    1.9425076 
 3550000    0.8031319  -0.06543267    0.7660752    1.1680181   -5.6510006    6.4170758    1.9340933 
 3560000    0.8028401  -0.13098272   0.76726658    1.1675938   -5.6514481    6.4187147    1.9348603 
 3570000   0.79775587 -0.044805844   0.77155365    1.1601996   -5.6441066    6.4156603    1.9317533 
 3580000   0.80352722  -0.11813812   0.75455365    1.1685931   -5.6590164      6.41357    1.9231467 
 3590000   0.80233777   -0.1232075   0.76724878    1.1668632   -5.6504532    6.4177019     1.934112 
 3600000   0.80400766 -0.071463193   0.76797888    1.1692918   -5.6486201     6.416599    1.9372707 
 3610000   0.80025284  -0.16241107   0.76479076     1.163831   -5.6535469    6.4183376    1.9286218 
 3620000   0.79729568 -0.094493364   0.77126702    1.1595304   -5.6479292    6.4191963    1.9307974 
 3630000   0.79620429  -0.13553677   0.75545296    1.1579431   -5.6606422    6.4160952    1.9133961 
 3640000   0.79963042  -0.10709765   0.75970032    1.1629258   -5.6581059    6.4178062    1.9226262 
 3650000   0.79789785  -0.13885222   0.75894714    1.1604061    -5.652569    6.4115161    1.9193533 
 3660000   0.80132865  -0.10583698   0.76899427    1.1653956   -5.6438657      6.41286    1.9343899 
 3670000   0.80934286  -0.14606343   0.74975468    1.1770509   -5.6643432    6.4140979    1.9268056 
 3680000   0.80245776  -0.11618868   0.76863295    1.1670377   -5.6466144    6.4152473    1.9356707 
 3690000   0.80008883 -0.090047096   0.76541708    1.1635925   -5.6492624    6.4146795    1.9290096 
 3700000   0.80131648  -0.14465404   0.75440974    1.1653779   -5.6617528    6.4161625    1.9197877 
 3710000   0.79589855  -0.16394867   0.76063757    1.1574985   -5.6581749    6.4188125     1.918136 
 3720000   0.79570053  -0.12317178   0.77656263    1.1572105   -5.6397163    6.4162789    1.9337731 
 3730000   0.80022408  -0.10839896   0.75924434    1.1637892   -5.6516409    6.4108852    1.9230335 
 3740000   0.79524776  -0.17855842   0.76653297     1.156552   -5.6496983    6.4162312     1.923085 
 3750000   0.80221128  -0.10631727   0.76485004    1.1666793   -5.6515166    6.4163666    1.9315293 
 3760000   0.80014042 -0.097326558   0.77128026    1.1636675   -5.6439671    6.4152474    1.9349478 
 3770000   0.80072206 -0.087863437   0.76390499    1.1645134   -5.6512652    6.4151702    1.9284184 
 3780000   0.80186493  -0.10775728   0.76269618    1.1661756   -5.6550433    6.4177395    1.9288717 
 3790000    0.8055363  -0.16699462   0.76626017    1.1715149   -5.6489849    6.4152451    1.9377751 
 3800000   0.80572957  -0.15615059   0.77007361     1.171796    -5.646638    6.4167116    1.9418696 
 3810000   0.79654542  -0.15992802   0.76753162    1.1584392   -5.6500523    6.4175839    1.9259708 
 3820000   0.79662226 -0.098418018   0.77230088     1.158551   -5.6441841     6.416485    1.9308519 
 3830000   0.80342157 -0.087578934   0.76506399    1.1684394   -5.6536798    6.4187438    1.9335034 
 3840000   0.79611883 -0.063826855   0.76400352    1.1578188   -5.6518521    6.4158556    1.9218223 
 3850000   0.79691487  -0.18081005   0.76174214    1.1589765   -5.6549938     6.416736    1.9207187 
 3860000    0.7978085  -0.13131265   0.76965407    1.1602762   -5.6462619     6.415916    1.9299302 
 3870000   0.79749048  -0.11452547   0.76771034    1.1598137   -5.6493871    6.4170975     1.927524 
 3880000   0.80528878  -0.12128003   0.76429444     1.171155    -5.649502    6.4137964    1.9354494 
 3890000   0.79926705  -0.15764112   0.76049424    1.1623974   -5.6559719    6.4164662    1.9228916 
 3900000   0.80632836  -0.16626874   0.75982662    1.1726668   -5.6571061    6.4169327    1.9324935 
 3910000   0.80247619  -0.14858411   0.75626107    1.1670645   -5.6599617    6.4162228    1.9233256 
 3920000   0.80171867  -0.16351652   0.76631969    1.1659628   -5.6521485    6.4184681    1.9322825 
 3930000   0.79982898  -0.14471825   0.76339344    1.1632146   -5.6558109    6.4192043     1.926608 
 3940000   0.80267338 -0.096139509   0.76533229    1.1673513   -5.6495026    6.4148348    1.9326836 
 3950000   0.80104099  -0.13201009   0.76069212    1.1649773   -5.6535425    6.4142346    1.9256694 
 3960000   0.79810045  -0.19173617   0.76021438    1.1607008   -5.6580018    6.4182162    1.9209151 
 3970000   0.79824286   -0.1500965   0.77198755    1.1609079   -5.6476971    6.4196847    1.9328954 
 3980000    0.8022749  -0.14533886   0.76590042    1.1667718   -5.6507609    6.4166613    1.9326722 
 3990000   0.79598372  -0.10454817   0.77249502    1.1576223   -5.6463054    6.4188004    1.9301174 
 4000000   0.80346158  -0.10569968   0.76986087    1.1684976   -5.6475628    6.4174237    1.9383585 
 4010000   0.79804202  -0.13005444   0.76934572    1.1606158   -5.6466919    6.4160376    1.9299615 
 4020000   0.80413044 -0.087348734    0.7722161    1.1694704   -5.6465654    6.4187815    1.9416864 
 4030000   0.79743319   -0.1190191   0.76771018    1.1597303   -5.6464005    6.4141106    1.9274405 
 4040000   0.80398851  -0.16235916    0.7707318    1.1692639   -5.6463008    6.4170326    1.9399957 
 4050000   0.80384925   -0.1686173   0.76530839    1.1690614    -5.649525    6.4148334    1.9343698 
 4060000   0.80272108  -0.12766501   0.76418524    1.1674207    -5.648529    6.4127142    1.9316059 
 4070000   0.79923798  -0.11443437   0.77383223    1.1623551    -5.644956    6.4187883    1.9361873 
 4080000    0.8057085  -0.12223192    0.7690136    1.1717654   -5.6456563    6.4146699     1.940779 
 4090000   0.79339777  -0.13420346   0.76491552    1.1538615   -5.6520491    6.4169646     1.918777 
 4100000   0.80300479  -0.09382572   0.77262234    1.1678333   -5.6448641    6.4174865    1.9404556 
 4110000   0.80368508  -0.15206632   0.77292401    1.1688226   -5.6460185    6.4189425    1.9417467 
 4120000   0.80298231  -0.11184764   0.76401569    1.1678006    -5.651121    6.4151367    1.9318163 
 4130000   0.79854318  -0.14175029   0.76819142    1.1613446   -5.6488771    6.4170685    1.9295361 
 4140000   0.79732903   -0.1008047   0.76575846    1.1595789   -5.6507701    6.4165286    1.9253373 
 4150000    0.7983947  -0.19043595   0.75686938    1.1611287   -5.6597621    6.4166314    1.9179981 
 4160000   0.79578859 -0.083536644   0.76987722    1.1573385   -5.6467054    6.4165827    1.9272158 
 4170000   0.80092719 -0.094964251   0.75946764    1.1648118   -5.6563981    6.4158658    1.9242794 
 4180000    0.8016956  -0.12072535   0.77353567    1.1659293   -5.6422851    6.4158207    1.9394649 
 4190000   0.79870186  -0.14484366   0.77362764    1.1615754   -5.6444714     6.418099     1.935203 
 4200000   0.78928612  -0.10859548   0.76505252    1.1478818   -5.6481952    6.4132477    1.9129343 
 4210000    0.8028607 -0.063761424   0.77162847    1.1676237   -5.6450806    6.4167091    1.9392522 
 4220000   0.80155943  -0.15211344   0.76711853    1.1657312    -5.652172    6.4192905    1.9328498 
 4230000   0.80672583   -0.1307584   0.77224406    1.1732449    -5.645365     6.417609     1.945489 
 4240000   0.80327636  -0.15217127   0.77507543    1.1682282   -5.6439227    6.4189981    1.9433037 
 4250000    0.8002521  -0.11132937    0.7751831      1.16383   -5.6408423    6.4160254    1.9390131 
 4260000   0.80089918  -0.14267737   0.76904851     1.164771   -5.6465631    6.4156116    1.9338195 
 4270000   0.80699671   -0.0492911   0.77285686    1.1736388   -5.6435475    6.4164043    1.9464957 
 4280000    0.7915632  -0.17823625   0.76750599    1.1511934   -5.6498873    6.4173933    1.9186994 
 4290000   0.79520474 -0.098295881   0.77346395    1.1564894   -5.6407848    6.4142487    1.9299534 
 4300000     0.792533  -0.10102378   0.76964068    1.1526039   -5.6469888    6.4166295    1.9222445 
 4310000   0.79644821 -0.095952906   0.76988677    1.1582979   -5.6459632      6.41585    1.9281846 
 4320000   0.79794053 -0.048893599   0.76121947    1.1604682   -5.6532735    6.4144929    1.9216877 
 4330000   0.80424313   -0.1919611   0.76551895    1.1696342   -5.6512364    6.4167553    1.9351532 
 4340000   0.80538717 -0.093281755    0.7689498     1.171298   -5.6457555    6.4147053    1.9402478 
 4350000   0.79854607 -0.058918218   0.76379227    1.1613488   -5.6508834    6.4146757    1.9251411 
 4360000   0.80291208  -0.14507351     0.771162    1.1676985   -5.6447642    6.4159262    1.9388605 
 4370000   0.80245835  -0.03109958   0.77193923    1.1670386   -5.6438999    6.4158391    1.9389778 
 4380000   0.80609611  -0.10951943   0.76711823    1.1723291   -5.6493871    6.4165053    1.9394473 
 4390000   0.80237689  -0.13517255   0.76774932    1.1669201   -5.6468049    6.4145543    1.9346694 
 4400000   0.80377725  -0.14563743   0.76549971    1.1689567   -5.6475007    6.4130004    1.9344564 
 4410000   0.79556942  -0.15600813   0.77454653    1.1570198   -5.6424432    6.4169898    1.9315663 
 4420000   0.79800092  -0.14003131   0.77640128     1.160556   -5.6379977     6.414399    1.9369573 
 4430000   0.79782863  -0.16274858   0.76485242    1.1603054   -5.6538601    6.4187125    1.9251579 
 4440000    0.7983711  -0.12223073   0.76337266    1.1610944   -5.6527733     6.416146     1.924467 
 4450000   0.79691713  -0.12117408   0.76591809    1.1589798   -5.6508343    6.4167524    1.9248979 
 4460000    0.8037268  -0.15307937   0.76790322    1.1688833   -5.6468889    6.4147922    1.9367866 
 4470000   0.79963856  -0.14256624   0.76116951    1.1629377   -5.6525081    6.4136776    1.9241072 
 4480000   0.79998881  -0.12479787   0.77684899    1.1634471   -5.6391274    6.4159764     1.940296 
 4490000   0.79623597  -0.14752154   0.76347282    1.1579892   -5.6519167    6.4153895     1.921462 
 4500000   0.80739515  -0.13422716   0.78105977    1.1742183   -5.6379364    6.4189962    1.9552781 
 4510000   0.80049577 -0.094478983   0.76724545    1.1641843   -5.6481326     6.415378    1.9314298 
 4520000   0.79816318  -0.11389466   0.77454268     1.160792    -5.644228    6.4187706    1.9353347 
 4530000   0.79817084 -0.059037044   0.76616708    1.1608031   -5.6494251    6.4155922    1.9269702 
 4540000   0.79712975  -0.11372887   0.76390942     1.159289   -5.6532669    6.4171763    1.9231985 
 4550000   0.80431973  -0.21408027   0.76329857    1.1697456   -5.6504299    6.4137285    1.9330442 
 4560000   0.80682207 -0.065854088   0.77234508    1.1733849   -5.6419345    6.4142795    1.9457299 
 4570000    0.7966334  -0.13838437   0.76281598    1.1585672   -5.6520231     6.414839    1.9213832 
 4580000   0.79329082  -0.10359229   0.77082981     1.153706   -5.6455183    6.4163481    1.9245358 
 4590000   0.80184285  -0.10048645   0.77013887    1.1661434   -5.6439933    6.4141322    1.9362823 
 4600000   0.79725174 -0.091170009   0.77104973    1.1594665   -5.6465072    6.4175569    1.9305162 
 4610000   0.80765165 -0.081438331   0.77250668    1.1745913   -5.6444433      6.41695     1.947098 
 4620000   0.80160843  -0.11693091    0.7745457    1.1658025   -5.6423701    6.4169158    1.9403482 
 4630000   0.79366833  -0.14068201   0.77185028     1.154255   -5.6465561    6.4184064    1.9261053 
 4640000   0.79588764  -0.11209573   0.76726334    1.1574826   -5.6502811    6.4175445    1.9247459 
 4650000   0.80763184   -0.1281761   0.76806735    1.1745625   -5.6492921    6.4173594    1.9426299 
 4660000   0.79401797  -0.12601693   0.76795364    1.1547635   -5.6505816    6.4185352    1.9227171 
 4670000    0.8000818  -0.19452691   0.76448788    1.1635823   -5.6480188    6.4125066    1.9280702 
 4680000   0.80035956  -0.14672362   0.77274969    1.1639862   -5.6442072    6.4169569    1.9367359 
 4690000   0.80330825 -0.080930178    0.7673163    1.1682746   -5.6477653    6.4150816    1.9355909 
 4700000   0.80174255   -0.1631907   0.76884354    1.1659976   -5.6465338    6.4153774    1.9348411 
 4710000    0.7900908  -0.15203849   0.76868871    1.1490521   -5.6489357    6.4176244    1.9177408 
 4720000   0.79513882  -0.17341497   0.76527543    1.1563936   -5.6492599    6.4145354     1.921669 
 4730000   0.79897483   -0.1284284   0.76861311    1.1619724   -5.6478797    6.4164928    1.9305855 
 4740000   0.80376479  -0.12021387   0.77211643    1.1689386   -5.6453184    6.4174348     1.941055 
 4750000    0.8025601  -0.12563219   0.76218967    1.1671866   -5.6560344    6.4182241    1.9293762 
 4760000   0.80090408 -0.079888398   0.77061942    1.1647782   -5.6454991    6.4161185    1.9353976 
 4770000   0.79917438   -0.1517674   0.75967082    1.1622626   -5.6566315    6.4163023    1.9219334 
 4780000   0.79955796  -0.06693288    0.7666102    1.1628205   -5.6499142    6.4165244    1.9294306 
 4790000   0.80152875  -0.12429896   0.76666654    1.1656866   -5.6510375     6.417704    1.9323532 
 4800000   0.80323395  -0.20541157   0.76678989    1.1681666   -5.6542281     6.421018    1.9349565 
 4810000   0.79849434  -0.15205057   0.76065516    1.1612736   -5.6554969    6.4161521    1.9219288 
 4820000    0.7968918 -0.083446716   0.76248189     1.158943   -5.6540208    6.4165027    1.9214249 
 4830000   0.79188402  -0.15162422   0.77071402      1.15166   -5.6464503    6.4171643     1.922374 
 4840000   0.80074691  -0.19041752   0.76732227    1.1645496   -5.6491333    6.4164556    1.9318718 
 4850000   0.80150557  -0.26784211   0.76978707    1.1656529   -5.6485751    6.4183622      1.93544 
 4860000   0.80162718 -0.076560899   0.76758353    1.1658298   -5.6501638    6.4177473    1.9334133 
 4870000   0.80160863  -0.14129685   0.77060889    1.1658028   -5.6470348    6.4176436    1.9364117 
 4880000   0.80369843  -0.14891536   0.76269758    1.1688421   -5.6518752    6.4145728    1.9315396 
 4890000   0.79925592   -0.1485982   0.76360682    1.1623812   -5.6543488    6.4179557     1.925988 
 4900000   0.80495924 -0.080280731   0.75941123    1.1706757   -5.6552149    6.4146261    1.9300869 
 4910000   0.80167802  -0.13181021   0.76929645    1.1659037    -5.644785    6.4140814    1.9352002 
 4920000   0.80251765  -0.16833868   0.76217863    1.1671248   -5.6508531    6.4130318    1.9293035 
 4930000   0.79785755  -0.12078907   0.76402604    1.1603475    -5.650427     6.414453    1.9243735 
 4940000   0.79786283 -0.078215909   0.76761628    1.1603552   -5.6511229    6.4187392    1.9279715 
 4950000   0.80453398  -0.18211487   0.75239254    1.1700572   -5.6623736    6.4147661    1.9224498 
 4960000   0.79684187  -0.14298881   0.75827323    1.1588704    -5.656701    6.4149743    1.9171436 
 4970000   0.79730213  -0.13627316   0.77223874    1.1595397   -5.6440552    6.4162939    1.9317785 
 4980000   0.80287563  -0.12349258   0.76440453    1.1676454   -5.6518881    6.4162926      1.93205 
 4990000   0.80357731   -0.1022231   0.76736622    1.1686659   -5.6462026    6.4135688    1.9360321 
 5000000   0.80372662  -0.12649577   0.76330471    1.1688831   -5.6575422    6.4208469    1.9321878 
 5010000   0.79869468  -0.12596826   0.75841025     1.161565   -5.6550451    6.4134553    1.9199752 
 5020000   0.80740817  -0.14924889   0.75829392    1.1742372   -5.6574798    6.4157737    1.9325312 
 5030000   0.80107749  -0.11335253   0.75536217    1.1650303     -5.65899    6.4143522    1.9203925 
 5040000   0.79986248   -0.1101331   0.76074461    1.1632633    -5.657395    6.4181396    1.9240079 
 5050000   0.79613843  -0.13340082   0.75805085    1.1578473   -5.6620373    6.4200882    1.9158982 
 5060000   0.79923547   -0.1026823   0.76470984    1.1623515   -5.6503138    6.4150236    1.9270613 
 5070000   0.80049451 -0.090533348   0.76678411    1.1641825   -5.6511891    6.4179732    1.9309666 
 5080000   0.79527631  -0.18573798   0.75908654    1.1565935   -5.6602633    6.4193499    1.9156801 
 5090000   0.79349645  -0.15023646   0.76634193     1.154005   -5.6525604    6.4189024    1.9203469 
 5100000   0.79809934  -0.07798551    0.7696351    1.1606991   -5.6463968    6.4160319    1.9303342 
 5110000   0.79831554 -0.085024515   0.76537292    1.1610136   -5.6517848    6.4171577    1.9263865 
 5120000   0.79603833  -0.13791636    0.7618105    1.1577018   -5.6565015     6.418312    1.9195122 
 5130000   0.79345372  -0.11503384   0.76769331    1.1539429    -5.648495    6.4161883    1.9216362 
 5140000   0.79885131  -0.14681912   0.76432214    1.1617927   -5.6536439    6.4179661    1.9261149 
 5150000   0.80211798  -0.12770843   0.75944397    1.1665436   -5.6570811     6.416525    1.9259875 
 5160000   0.79995836  -0.12982546   0.76588655    1.1634028   -5.6501588    6.4160454    1.9292893 
 5170000   0.79696414  -0.13182503   0.76677692    1.1590482   -5.6472444    6.4140213    1.9258251 
 5180000   0.79835823 -0.089067584   0.76975568    1.1610757   -5.6480856    6.4178413    1.9308313 
 5190000   0.80376582  -0.18926292   0.75105128    1.1689401   -5.6627547    6.4138059    1.9199913 
 5200000   0.79973391  -0.20015301   0.75560839    1.1630763   -5.6604031    6.4160115    1.9186847 
 5210000   0.79400582  -0.14363149   0.76208191    1.1547458   -5.6532394    6.4153213    1.9168277 
 5220000   0.79423642  -0.13710845   0.75822645    1.1550812   -5.6585566    6.4167831    1.9133076 
 5230000   0.79963081  -0.12836324   0.76045924    1.1629264   -5.6575342    6.4179934    1.9233856 
 5240000   0.79208527  -0.11723979    0.7637882    1.1519527   -5.6506847    6.4144729    1.9157409 
 5250000   0.80006085  -0.13169729   0.75929364    1.1635518    -5.657832    6.4171257    1.9228455 
 5260000    0.7980489  -0.16296223   0.75624782    1.1606258   -5.6581562     6.414404    1.9168736 
 5270000   0.80231275  -0.19849241   0.76176685    1.1668268   -5.6551801    6.4169469    1.9285937 
 5280000    0.7985998 -0.095551281   0.77257885     1.161427   -5.6452686    6.4178474    1.9340058 
 5290000   0.80082889  -0.17852455   0.76092744    1.1646688   -5.6532552    6.4141826    1.9255962 
 5300000    0.8021258  -0.13684649   0.76363638    1.1665549   -5.6530981    6.4167345    1.9301913 
 5310000   0.79929164  -0.10102312   0.75686854    1.1624331   -5.6584078    6.4152763    1.9193017 
 5320000   0.80497235  -0.10227303   0.76435474    1.1706948   -5.6543516    6.4187064    1.9350495 
 5330000    0.8059354  -0.10215621   0.76024309    1.1720953   -5.6525204    6.4127635    1.9323384 
 5340000   0.80148485  -0.17401613   0.76073092    1.1656228   -5.6582826    6.4190135    1.9263537 
 5350000   0.80198295  -0.13357698   0.76121655    1.1663472   -5.6577785     6.418995    1.9275637 
 5360000   0.80500156 -0.084086546   0.77026666    1.1707372   -5.6482357    6.4185024    1.9410039 
 5370000   0.80439425  -0.15453494   0.75656135     1.169854   -5.6600335    6.4165948    1.9264154 
 5380000   0.79436613  -0.12570884   0.76616701    1.1552698   -5.6491177    6.4152847    1.9214368 
 5390000    0.8079266  -0.13771519   0.75752749    1.1749912   -5.6588831    6.4164106    1.9325187 
 5400000   0.80458996  -0.15259429    0.7609763    1.1701386   -5.6580623    6.4190386    1.9311149 
 5410000   0.80203287  -0.12495884   0.76965553    1.1664198   -5.6473734     6.417029    1.9360753 
 5420000   0.80402989  -0.12712184   0.75556883    1.1693241   -5.6601174    6.4156862    1.9248929 
 5430000   0.79869368  -0.17532926    0.7505036    1.1615635     -5.66232    6.4128236    1.9120671 
 5440000   0.79388402 -0.064441732   0.76964853    1.1545687   -5.6488958    6.4185443    1.9242172 
 5450000   0.79420011  -0.16828974   0.75223773    1.1550284   -5.6600281    6.4122658    1.9072661 
 5460000   0.80246493 -0.048595268    0.7628445    1.1670481   -5.6529689    6.4158134    1.9298926 
 5470000   0.79140853   -0.1027105   0.76178386    1.1509685   -5.6542894    6.4160733    1.9127524 
 5480000   0.78786505  -0.15637186   0.75866851    1.1458151   -5.6586522    6.4173207    1.9044836 
 5490000   0.80028084  -0.11970034    0.7600484    1.1638718    -5.658891    6.4189394    1.9239202 
 5500000   0.79856307  -0.10683917   0.76327688    1.1613736   -5.6522529    6.4155298    1.9246504 
 5510000   0.80201817   -0.1262875   0.75880514    1.1663984   -5.6563161    6.4151213    1.9252036 
 5520000   0.80460143  -0.12792462   0.75290086    1.1701553   -5.6635346    6.4164354    1.9230562 
 5530000   0.79880284  -0.12679107   0.76564002    1.1617223   -5.6515191    6.4171591    1.9273623 
 5540000   0.79856589 -0.081010041   0.76469642    1.1613777   -5.6543062    6.4190026    1.9260741 
 5550000   0.79537381 -0.082081212   0.75674523    1.1567353   -5.6570521    6.4137974    1.9134806 
 5560000   0.80155085  -0.20024037   0.75319357    1.1657188   -5.6650896    6.4182832    1.9189123 
 5570000   0.79942559  -0.10149627   0.76128786     1.162628   -5.6571214    6.4184092    1.9239158 
 5580000   0.79776633  -0.16134607    0.7604391    1.1602148   -5.6533936    6.4138327    1.9206539 
 5590000   0.80017551 -0.061357318   0.76101836    1.1637186   -5.6537699    6.4147883    1.9247369 
 5600000   0.80187715 -0.060722773   0.76381863    1.1661933   -5.6546224    6.4184411    1.9300119 
 5610000   0.79525589  -0.20262991   0.75727078    1.1565638   -5.6607366    6.4180074    1.9138346 
 5620000   0.80047346  -0.15084049   0.75858881    1.1641519   -5.6593081     6.417897    1.9227407 
 5630000   0.79738577  -0.15572525   0.75272881    1.1596614   -5.6614801    6.4142089    1.9123902 
 5640000   0.79981042  -0.11505106    0.7543606    1.1631876   -5.6596188    6.4139794    1.9175482 
 5650000   0.79905189 -0.071532038   0.75946234    1.1620845   -5.6550605    6.4145229    1.9215468 
 5660000   0.80113486  -0.18212027   0.76085055    1.1651138   -5.6549298    6.4157804    1.9259643 
 5670000   0.80326131  -0.13055289   0.76591693    1.1682063   -5.6522617    6.4181786    1.9341233 
 5680000   0.81087232 -0.085951943   0.76689254    1.1792753   -5.6483715     6.415264    1.9461678 
 5690000   0.79484041  -0.07622146   0.75832877    1.1559596   -5.6556832     6.414012    1.9142883 
 5700000   0.79290957   -0.1519585   0.75604644    1.1531515   -5.6622745     6.418321    1.9091979 
 5710000   0.80306143   -0.0717866   0.76291057    1.1679157   -5.6536145    6.4165251    1.9308262 
 5720000   0.80452635  -0.10979384   0.75948656    1.1700461   -5.6578784    6.4173649    1.9295327 
 5730000   0.80032224  -0.19644365     0.754606     1.163932    -5.663097     6.417703     1.918538 
 5740000   0.80455989 -0.098651108   0.76315941    1.1700949   -5.6532677    6.4164271    1.9332543 
 5750000   0.80137644  -0.16437624   0.75404893    1.1654651   -5.6622311    6.4162801    1.9195141 
 5760000   0.79876641  -0.16869831   0.75637074    1.1616693   -5.6615782    6.4179489      1.91804 
 5770000   0.79920472 -0.085417469   0.77134524    1.1623067   -5.6445082    6.4158534     1.933652 
 5780000   0.80277041 -0.074309899   0.76241153    1.1674924   -5.6545232    6.4169347     1.929904 
 5790000   0.80360883 -0.085013752   0.76591163    1.1687117     -5.64914    6.4150516    1.9346234 
 5800000   0.79774743   -0.2144762    0.7537631    1.1601874   -5.6610104    6.4147735    1.9139504 
 5810000   0.80510649 -0.061362217   0.76255983    1.1708898   -5.6540795    6.4166393    1.9334497 
 5820000   0.80599408  -0.08798281   0.76402602    1.1721807   -5.6531439    6.4171699    1.9362067 
 5830000   0.80804616  -0.20123617   0.75718117    1.1751651   -5.6596007    6.4167819    1.9323463 
 5840000   0.78944814 -0.079292439   0.75668944    1.1481175   -5.6576421    6.4143315    1.9048069 
 5850000   0.79681591  -0.15268279   0.75060541    1.1588326   -5.6635073    6.4141127     1.909438 
 5860000   0.79740169  -0.12089258   0.75453637    1.1596845    -5.661727    6.4162633    1.9142209 
 5870000   0.79997634  -0.14643996   0.75106272    1.1634289   -5.6649388    6.4160015    1.9144916 
 5880000    0.7977829  -0.12557594   0.75998341    1.1602389   -5.6593944    6.4193778    1.9202223 
 5890000   0.79953221  -0.12459563   0.75716932     1.162783   -5.6587878    6.4159571    1.9199523 
 5900000   0.79776467 -0.092195965   0.76084398    1.1602124   -5.6550625    6.4159064    1.9210564 
 5910000   0.79770177  -0.13249077   0.75670275    1.1601209   -5.6585922     6.415295    1.9168237 
 5920000   0.79494757  -0.13914478   0.75769654    1.1561154   -5.6590423    6.4167389     1.913812 
 5930000   0.80416111  -0.12070205   0.75716074     1.169515   -5.6599444    6.4171052    1.9266757 
 5940000   0.79952699  -0.13744384   0.75443292    1.1627754   -5.6626061     6.417039    1.9172083 
 5950000   0.80197448  -0.11115996   0.75491169    1.1663349   -5.6604545    6.4153662    1.9212466 
 5960000   0.79858468 -0.078015984   0.76278864     1.161405   -5.6534809    6.4162696    1.9241936 
 5970000   0.79776865  -0.18131805   0.75331042    1.1602182   -5.6605034    6.4138138    1.9135286 
 5980000   0.80185322  -0.13566356   0.76193237    1.1661585   -5.6577329    6.4196652    1.9280909 
 5990000   0.79789413  -0.19069646    0.7506022    1.1604007   -5.6641603    6.4147625    1.9110029 
 6000000   0.79540191   -0.1530607    0.7564201    1.1567762   -5.6599168    6.4163369    1.9131963 
Loop time of 60029.5 on 216 procs for 6000000 steps with 27950 atoms

Performance: 43178.763 tau/day, 99.951 timesteps/s
99.9% CPU use with 216 MPI tasks x 1 OpenMP threads

MPI task timing breakdown:
Section |  min time  |  avg time  |  max time  |%varavg| %total
---------------------------------------------------------------
Pair    | 605.34     | 752.47     | 995.53     | 261.1 |  1.25
Bond    | 10.928     | 17.484     | 24.792     |  73.7 |  0.03
Kspace  | 53524      | 53765      | 53979      |  39.3 | 89.56
Neigh   | 713.47     | 747.36     | 790.43     |  58.5 |  1.24
Comm    | 1270.4     | 1527.3     | 1746.9     | 309.3 |  2.54
Output  | 2.4547     | 2.5037     | 2.5154     |   0.4 |  0.00
Modify  | 2654.1     | 2775.3     | 2943       | 137.2 |  4.62
Other   |            | 442.2      |            |       |  0.74

Nlocal:    129.398 ave 191 max 95 min
Histogram: 3 39 56 49 28 16 10 5 7 3
Nghost:    957.157 ave 1182 max 825 min
Histogram: 23 38 23 37 33 27 19 11 3 2
Neighs:    4840.29 ave 9739 max 2861 min
Histogram: 19 74 44 30 22 9 5 8 3 2

Total # of neighbors = 1045503
Ave neighs/atom = 37.4062
Ave special neighs/atom = 0.62254
Neighbor list builds = 806438
Dangerous builds = 0
System init for write_restart ...
PPPM initialization ...
  using 12-bit tables for long-range coulomb (src/kspace.cpp:332)
  G vector (1/distance) = 1.16837
  grid = 96 96 96
  stencil order = 5
  estimated absolute RMS force accuracy = 0.000103477
  estimated relative force accuracy = 0.000103477
  using double precision FFTW3
  3d grid and FFT values/proc = 9261 4608
WARNING: Neighbor exclusions used with KSpace solver may give inconsistent Coulombic energies (src/neighbor.cpp:486)
Neighbor list info ...
  update every 1 steps, delay 0 steps, check yes
  max neighbors/atom: 2000, page size: 100000
  master list distance cutoff = 2.8
  ghost atom cutoff = 2.8
  binsize = 1.4, bins = 24 24 24
  12 neighbor lists, perpetual/occasional/extra = 2 10 0
  (1) pair lj/cut, perpetual
      attributes: half, newton on
      pair build: half/bin/newton
      stencil: half/bin/3d/newton
      bin: standard
  (2) pair coul/long, perpetual, skip from (1)
      attributes: half, newton on
      pair build: skip
      stencil: none
      bin: none
  (3) compute rdf, occasional, copy from (1)
      attributes: half, newton on
      pair build: copy
      stencil: none
      bin: none
  (4) compute rdf, occasional, copy from (1)
      attributes: half, newton on
      pair build: copy
      stencil: none
      bin: none
  (5) compute rdf, occasional, copy from (1)
      attributes: half, newton on
      pair build: copy
      stencil: none
      bin: none
  (6) compute rdf, occasional, copy from (1)
      attributes: half, newton on
      pair build: copy
      stencil: none
      bin: none
  (7) compute rdf, occasional, copy from (1)
      attributes: half, newton on
      pair build: copy
      stencil: none
      bin: none
  (8) compute rdf, occasional, copy from (1)
      attributes: half, newton on
      pair build: copy
      stencil: none
      bin: none
  (9) compute rdf, occasional, copy from (1)
      attributes: half, newton on
      pair build: copy
      stencil: none
      bin: none
  (10) compute rdf, occasional, copy from (1)
      attributes: half, newton on
      pair build: copy
      stencil: none
      bin: none
  (11) compute rdf, occasional, copy from (1)
      attributes: half, newton on
      pair build: copy
      stencil: none
      bin: none
  (12) compute rdf, occasional, copy from (1)
      attributes: half, newton on
      pair build: copy
      stencil: none
      bin: none
PPPM initialization ...
  using 12-bit tables for long-range coulomb (src/kspace.cpp:332)
  G vector (1/distance) = 1.16837
  grid = 96 96 96
  stencil order = 5
  estimated absolute RMS force accuracy = 0.000103477
  estimated relative force accuracy = 0.000103477
  using double precision FFTW3
  3d grid and FFT values/proc = 9261 4608
WARNING: Neighbor exclusions used with KSpace solver may give inconsistent Coulombic energies (src/neighbor.cpp:486)
Neighbor list info ...
  update every 1 steps, delay 0 steps, check yes
  max neighbors/atom: 2000, page size: 100000
  master list distance cutoff = 2.8
  ghost atom cutoff = 2.8
  binsize = 1.4, bins = 24 24 24
  12 neighbor lists, perpetual/occasional/extra = 2 10 0
  (1) pair lj/cut, perpetual
      attributes: half, newton on
      pair build: half/bin/newton
      stencil: half/bin/3d/newton
      bin: standard
  (2) pair coul/long, perpetual, skip from (1)
      attributes: half, newton on
      pair build: skip
      stencil: none
      bin: none
  (3) compute rdf, occasional, copy from (1)
      attributes: half, newton on
      pair build: copy
      stencil: none
      bin: none
  (4) compute rdf, occasional, copy from (1)
      attributes: half, newton on
      pair build: copy
      stencil: none
      bin: none
  (5) compute rdf, occasional, copy from (1)
      attributes: half, newton on
      pair build: copy
      stencil: none
      bin: none
  (6) compute rdf, occasional, copy from (1)
      attributes: half, newton on
      pair build: copy
      stencil: none
      bin: none
  (7) compute rdf, occasional, copy from (1)
      attributes: half, newton on
      pair build: copy
      stencil: none
      bin: none
  (8) compute rdf, occasional, copy from (1)
      attributes: half, newton on
      pair build: copy
      stencil: none
      bin: none
  (9) compute rdf, occasional, copy from (1)
      attributes: half, newton on
      pair build: copy
      stencil: none
      bin: none
  (10) compute rdf, occasional, copy from (1)
      attributes: half, newton on
      pair build: copy
      stencil: none
      bin: none
  (11) compute rdf, occasional, copy from (1)
      attributes: half, newton on
      pair build: copy
      stencil: none
      bin: none
  (12) compute rdf, occasional, copy from (1)
      attributes: half, newton on
      pair build: copy
      stencil: none
      bin: none
Setting up Verlet run ...
  Unit style    : lj
  Current step  : 6000000
  Time step     : 0.005
Per MPI rank memory allocation (min/avg/max) = 17.83 | 19.13 | 19.88 Mbytes
Step Lx Ly Lz Press Pxx Pyy Pzz PotEng Temp 
 6000000    32.531758    32.531758    32.531758  -0.13417613  -0.56857045   0.56518044  -0.39913839    0.7564201   0.79540191 
 6000010    33.182393     32.21124     32.21124 -0.053280377    -1.300706   0.58121986   0.55964497   0.77372651   0.80102518 
 6000020    33.833029    31.900013    31.900013 -0.020928629   -1.5588437    0.8331699   0.66288788   0.79428097   0.82257398 
 6000030    34.483664    31.597637    31.597637  0.027355728   -1.8200861    1.0054924   0.89666087   0.82848488   0.83883778 
 6000040    35.134299    31.303699    31.303699   0.12002588    -1.811747    1.0532986     1.118526   0.86355756   0.85810596 
 6000050    35.784934    31.017814    31.017814   0.21815407   -1.6384142    1.1662874    1.1265889   0.88596543   0.88377265 
 6000060    36.435569    30.739622    30.739622   0.35453071    -1.553004    1.2686147    1.3479815   0.91390173   0.90343983 
 6000070    37.086204    30.468783    30.468783   0.48687869   -1.3666675     1.376231    1.4510726   0.93951395   0.92380785 
 6000080     37.73684    30.204979    30.204979   0.61101249   -1.3084899    1.4566173    1.6849101   0.95741499   0.94816818 
 6000090    38.387475    29.947911    29.947911   0.68780972   -1.1146503    1.5150694      1.66301   0.97493732    0.9716204 
 6000100     39.03811    29.697296    29.697296   0.77283005   -1.0311987    1.6370758    1.7126131   0.99340791   0.99126844 
Loop time of 1.25401 on 216 procs for 100 steps with 27950 atoms

Performance: 34449.522 tau/day, 79.744 timesteps/s
99.9% CPU use with 216 MPI tasks x 1 OpenMP threads

MPI task timing breakdown:
Section |  min time  |  avg time  |  max time  |%varavg| %total
---------------------------------------------------------------
Pair    | 0.007268   | 0.011979   | 0.029363   |   4.0 |  0.96
Bond    | 2.9087e-05 | 0.00022241 | 0.00055504 |   0.0 |  0.02
Kspace  | 0.90958    | 0.92687    | 0.93654    |   0.5 | 73.91
Neigh   | 0.040246   | 0.042336   | 0.045194   |   0.5 |  3.38
Comm    | 0.031968   | 0.038973   | 0.046269   |   1.4 |  3.11
Output  | 0.0047414  | 0.0088441  | 0.011742   |   1.3 |  0.71
Modify  | 0.11885    | 0.142      | 0.18282    |   3.3 | 11.32
Other   |            | 0.08279    |            |       |  6.60

Nlocal:    129.398 ave 195 max 104 min
Histogram: 39 57 39 35 19 6 12 4 4 1
Nghost:    962.491 ave 1186 max 830 min
Histogram: 29 26 32 35 23 38 18 7 7 1
Neighs:    4855.61 ave 10151 max 3197 min
Histogram: 55 62 38 25 14 7 9 3 2 1

Total # of neighbors = 1048812
Ave neighs/atom = 37.5246
Ave special neighs/atom = 0.62254
Neighbor list builds = 49
Dangerous builds = 0
PPPM initialization ...
  using 12-bit tables for long-range coulomb (src/kspace.cpp:332)
  G vector (1/distance) = 1.1671
  grid = 108 90 90
  stencil order = 5
  estimated absolute RMS force accuracy = 0.000105718
  estimated relative force accuracy = 0.000105718
  using double precision FFTW3
  3d grid and FFT values/proc = 9200 4320
WARNING: Neighbor exclusions used with KSpace solver may give inconsistent Coulombic energies (src/neighbor.cpp:486)
Neighbor list info ...
  update every 1 steps, delay 0 steps, check yes
  max neighbors/atom: 2000, page size: 100000
  master list distance cutoff = 2.8
  ghost atom cutoff = 2.8
  binsize = 1.4, bins = 28 22 22
  12 neighbor lists, perpetual/occasional/extra = 2 10 0
  (1) pair lj/cut, perpetual
      attributes: half, newton on
      pair build: half/bin/newton
      stencil: half/bin/3d/newton
      bin: standard
  (2) pair coul/long, perpetual, skip from (1)
      attributes: half, newton on
      pair build: skip
      stencil: none
      bin: none
  (3) compute rdf, occasional, copy from (1)
      attributes: half, newton on
      pair build: copy
      stencil: none
      bin: none
  (4) compute rdf, occasional, copy from (1)
      attributes: half, newton on
      pair build: copy
      stencil: none
      bin: none
  (5) compute rdf, occasional, copy from (1)
      attributes: half, newton on
      pair build: copy
      stencil: none
      bin: none
  (6) compute rdf, occasional, copy from (1)
      attributes: half, newton on
      pair build: copy
      stencil: none
      bin: none
  (7) compute rdf, occasional, copy from (1)
      attributes: half, newton on
      pair build: copy
      stencil: none
      bin: none
  (8) compute rdf, occasional, copy from (1)
      attributes: half, newton on
      pair build: copy
      stencil: none
      bin: none
  (9) compute rdf, occasional, copy from (1)
      attributes: half, newton on
      pair build: copy
      stencil: none
      bin: none
  (10) compute rdf, occasional, copy from (1)
      attributes: half, newton on
      pair build: copy
      stencil: none
      bin: none
  (11) compute rdf, occasional, copy from (1)
      attributes: half, newton on
      pair build: copy
      stencil: none
      bin: none
  (12) compute rdf, occasional, copy from (1)
      attributes: half, newton on
      pair build: copy
      stencil: none
      bin: none
Setting up Verlet run ...
  Unit style    : lj
  Current step  : 6000100
  Time step     : 0.005
Per MPI rank memory allocation (min/avg/max) = 17.82 | 19.13 | 19.86 Mbytes
Step Lx Ly Lz Press Pxx Pyy Pzz PotEng Temp 
 6000100     39.03811    29.697296    29.697296   0.41067605   -1.2313922    1.0507204       1.4127   0.99859663   0.99126843 
 6010000     39.03811    29.697296    29.697296 -0.093195362 -0.063216858  -0.12242645  -0.09394278    0.7714148   0.79846083 
 6020000     39.03811    29.697296    29.697296  -0.12848674   -0.1068561    -0.121585  -0.15701912   0.76207704   0.80341889 
 6030000     39.03811    29.697296    29.697296  -0.16683813  -0.20689833  -0.13732935  -0.15628672   0.75845321   0.80385201 
 6040000     39.03811    29.697296    29.697296 -0.060108369  -0.10998146   -0.1038788  0.033535148   0.75777554   0.80220529 
 6050000     39.03811    29.697296    29.697296  -0.11380239  -0.13897728  -0.09873842  -0.10369147   0.76699132   0.80592002 
 6060000     39.03811    29.697296    29.697296  -0.19169276  -0.22814349  -0.16181975  -0.18511505   0.76264887   0.80427363 
 6070000     39.03811    29.697296    29.697296   -0.1345279  -0.20278059 -0.069744354  -0.13105874   0.75468895    0.7959897 
 6080000     39.03811    29.697296    29.697296  -0.15959849  -0.12817754  -0.15323127  -0.19738667     0.756736   0.80229852 
 6090000     39.03811    29.697296    29.697296  -0.19619696  -0.18109478  -0.13797288  -0.26952321   0.75455655   0.80682312 
 6100000     39.03811    29.697296    29.697296  -0.13199697  -0.20329479  -0.10917005 -0.083526075   0.75519904   0.80307863 
 6100100     39.03811    29.697296    29.697296  -0.11905292  -0.20344881 -0.073357814 -0.080352136   0.76182553   0.80238128 
Loop time of 968.051 on 216 procs for 100000 steps with 27950 atoms

Performance: 44625.734 tau/day, 103.300 timesteps/s
99.9% CPU use with 216 MPI tasks x 1 OpenMP threads

MPI task timing breakdown:
Section |  min time  |  avg time  |  max time  |%varavg| %total
---------------------------------------------------------------
Pair    | 7.6286     | 11.995     | 28.519     | 124.3 |  1.24
Bond    | 0.030105   | 0.23664    | 0.56435    |  28.3 |  0.02
Kspace  | 849.28     | 871.75     | 882.05     |  23.1 | 90.05
Neigh   | 11.666     | 12.296     | 13.138     |   8.7 |  1.27
Comm    | 22.729     | 31.691     | 46.572     |  99.2 |  3.27
Output  | 0.11832    | 0.11858    | 0.11945    |   0.1 |  0.01
Modify  | 26.608     | 31.229     | 36.85      |  38.3 |  3.23
Other   |            | 8.739      |            |       |  0.90

Nlocal:    129.398 ave 190 max 105 min
Histogram: 34 62 40 25 24 9 9 5 5 3
Nghost:    962.63 ave 1158 max 838 min
Histogram: 26 31 30 30 25 31 24 5 10 4
Neighs:    4836.65 ave 9876 max 3172 min
Histogram: 52 64 36 24 14 9 7 7 2 1

Total # of neighbors = 1044716
Ave neighs/atom = 37.378
Ave special neighs/atom = 0.62254
Neighbor list builds = 13437
Dangerous builds = 0
Total wall time: 19:38:48
