ITEM: TIMESTEP
0
ITEM: NUMBER OF ATOMS
900
ITEM: BOX BOUNDS pp pp pp
7.3598007983716585e-01 3.3264019920151441e+01
7.3598007983716585e-01 3.3264019920151441e+01
7.3598007983716585e-01 3.3264019920151441e+01
ITEM: ATOMS id mol type x y z 
24768 0 3 5.42464 5.96822 2.47112 
9289 0 3 5.19619 1.76689 3.12482 
24161 0 3 3.65077 4.02863 4.00068 
19219 0 3 3.25825 4.8652 3.33081 
8963 0 3 4.45555 2.23987 5.59985 
2341 0 3 5.21357 4.23339 4.72437 
602 0 3 1.38966 1.50608 6.18114 
10797 0 3 3.65595 1.14757 7.58646 
1929 0 3 1.79217 1.4528 8.15185 
10223 0 3 5.06863 1.9164 9.30571 
20746 0 3 4.3163 2.76092 8.92593 
24178 0 3 1.39238 4.8729 8.21036 
23872 0 3 3.8277 3.67186 11.4307 
1288 0 3 4.9265 6.05333 18.873 
6409 0 3 6.13265 3.44091 21.1909 
2870 0 3 1.22705 5.86719 21.9344 
14823 0 3 3.72991 2.07719 23.6994 
19153 0 3 3.63277 5.67045 22.7867 
16866 0 3 5.85317 1.69267 25.829 
188 0 3 5.63548 2.62601 25.4265 
24732 0 3 5.6949 1.87132 28.9033 
17553 0 3 4.54351 5.42999 28.8503 
15209 0 3 5.52355 4.50024 28.8979 
25491 0 3 3.77614 3.52509 31.1288 
16264 0 3 3.05265 3.82532 32.7682 
17265 0 3 3.83122 5.42231 31.7912 
6841 0 3 4.72423 7.44046 1.45203 
20583 0 3 3.12581 8.57781 1.2915 
10790 0 3 5.90069 6.59825 7.24549 
17999 0 3 1.89178 7.18136 8.92298 
23145 0 3 4.24359 10.4295 8.18203 
13790 0 3 1.00319 10.591 11.573 
4315 0 3 0.796198 8.58727 11.8361 
16421 0 3 0.993653 11.4964 12.679 
23884 0 3 2.19941 8.9265 16.8381 
8643 0 3 1.6222 9.81005 16.7404 
11870 0 3 2.9916 11.2768 16.72 
10320 0 3 1.21168 9.26892 17.7486 
19988 0 3 5.56954 10.1211 17.9837 
26781 0 3 5.42308 8.55465 19.6165 
21444 0 3 4.904 10.3527 18.8083 
10199 0 3 2.84237 6.54994 23.6782 
22668 0 3 5.96645 7.23127 27.8257 
11632 0 3 4.72014 8.84094 26.0451 
25632 0 3 4.40236 10.2453 27.0568 
399 0 3 3.61288 6.71389 29.88 
4897 0 3 2.73697 7.37561 30.0332 
22059 0 3 5.18406 8.66703 32.1135 
14469 0 3 4.32433 10.9999 32.2572 
24329 0 3 3.50243 10.1706 32.5579 
24915 0 3 2.4709 12.0985 2.14385 
1928 0 3 5.89337 14.7774 2.13416 
4713 0 3 6.00477 15.2122 0.741921 
25132 0 3 2.16148 12.6142 3.07788 
17802 0 3 4.74088 12.821 2.58072 
2922 0 3 3.55516 13.8641 2.60457 
4014 0 3 1.81051 15.9622 2.79965 
13049 0 3 1.85009 14.6981 5.06597 
5795 0 3 5.6829 16.1209 5.32854 
18093 0 3 1.92369 13.4161 7.93836 
14922 0 3 1.84468 16.4198 7.91949 
11143 0 3 4.40591 16.7599 9.1641 
18605 0 3 4.10358 13.1294 9.8813 
20014 0 3 3.86517 14.7065 10.6535 
13620 0 3 5.21497 15.8753 11.0531 
7532 0 3 1.86276 11.8891 12.2275 
21707 0 3 3.73376 12.6747 12.8688 
19486 0 3 2.35978 16.8965 11.6617 
2615 0 3 4.59653 16.8214 17.1407 
6286 0 3 4.58026 16.9842 19.4905 
1134 0 3 2.8695 14.0493 25.3984 
3800 0 3 5.07417 15.5696 24.5369 
8583 0 3 2.50479 13.6799 27.6674 
14247 0 3 0.867499 14.5525 29.3137 
12173 0 3 4.95038 16.0319 28.7202 
8367 0 3 1.39452 12.2494 29.9703 
16489 0 3 3.1161 16.5709 31.2352 
4642 0 3 1.19836 16.0952 31.4587 
8836 0 3 3.08455 15.7992 32.0181 
20639 0 3 1.84745 18.85 1.20759 
24227 0 3 2.88175 18.7728 3.75193 
11722 0 3 5.95632 18.0534 5.37315 
26048 0 3 0.769798 20.5107 5.11224 
19368 0 3 3.16972 21.6494 6.00443 
24441 0 3 2.95439 17.6573 7.12875 
8077 0 3 4.97956 21.4087 9.65341 
20853 0 3 1.83571 19.7103 10.4399 
6801 0 3 3.85014 19.7322 14.0941 
5210 0 3 3.70403 22.4132 13.8597 
26199 0 3 5.53847 21.0126 16.2553 
26418 0 3 2.89844 22.009 17.5963 
24280 0 3 0.789319 20.0362 19.1888 
23534 0 3 3.85836 19.8376 21.7097 
25881 0 3 3.9994 20.2263 23.3262 
8698 0 3 2.76176 22.2795 24.1538 
17491 0 3 4.79623 18.8752 24.4511 
24531 0 3 3.57126 21.6731 24.9651 
10356 0 3 5.33345 22.0952 27.6625 
5447 0 3 1.21037 22.041 28.3591 
22187 0 3 5.66232 17.444 29.6751 
17900 0 3 3.68688 20.816 31.2577 
22014 0 3 1.898 20.0921 32.2728 
16700 0 3 3.61699 24.1396 1.20628 
16504 0 3 4.25236 27.5074 2.25124 
478 0 3 5.89584 27.3733 1.32798 
2628 0 3 4.73375 23.5849 4.24339 
16878 0 3 5.7081 25.6267 3.6829 
12010 0 3 1.05505 25.7268 5.02629 
15173 0 3 6.07496 22.4991 7.93115 
24217 0 3 1.55525 24.6751 9.01521 
11916 0 3 1.20127 27.2882 9.00291 
22260 0 3 3.86807 23.8066 10.6635 
24108 0 3 2.72306 24.0713 11.1016 
4880 0 3 4.09098 25.0233 12.3127 
1011 0 3 1.56111 23.4782 15.0611 
5324 0 3 5.2734 23.9316 14.8523 
26255 0 3 5.28564 23.238 15.925 
9720 0 3 2.84254 24.7381 18.098 
22173 0 3 3.95903 24.9793 17.9875 
1352 0 3 0.841757 23.2903 22.0827 
2228 0 3 3.44364 24.7735 21.6167 
19507 0 3 1.05122 22.5194 22.7525 
4247 0 3 2.23581 24.0991 23.6673 
1629 0 3 1.92174 25.3903 22.932 
8664 0 3 4.70379 23.9415 25.8313 
23800 0 3 4.7965 26.5241 25.7612 
24031 0 3 5.61222 24.1557 26.8771 
17767 0 3 3.91137 24.4814 26.7752 
5110 0 3 2.15977 26.1931 26.5336 
24345 0 3 2.8883 23.406 30.6299 
18700 0 3 1.50175 26.654 30.8377 
14070 0 3 2.80236 23.2945 33.0393 
10172 0 3 5.67887 24.2103 31.5911 
21410 0 3 2.25458 26.3083 32.7172 
6732 0 3 2.29712 28.0527 2.30468 
2371 0 3 5.48178 28.8315 2.0768 
12370 0 3 5.5444 30.4708 1.09786 
2570 0 3 2.95122 28.4358 5.13162 
6211 0 3 4.02978 32.007 4.65674 
2747 0 3 1.49047 28.1444 7.46814 
6782 0 3 1.94401 31.2884 6.60141 
24068 0 3 5.85413 31.6152 7.80731 
2855 0 3 1.51015 30.1964 9.49059 
4541 0 3 2.70084 29.8939 9.72609 
17245 0 3 5.92225 30.6974 9.54008 
14275 0 3 3.85291 32.7187 8.0501 
14299 0 3 3.74687 31.558 9.71604 
21178 0 3 3.18295 30.5943 10.3878 
3092 0 3 0.94822 28.3739 11.927 
5117 0 3 3.94357 32.2493 11.8787 
13174 0 3 1.00244 29.0244 14.8556 
14840 0 3 4.78472 31.8978 14.7717 
21912 0 3 3.93827 28.0892 16.2908 
21400 0 3 5.02076 29.6595 18.1212 
15349 0 3 1.94087 28.3341 23.0775 
6009 0 3 2.92446 29.6494 32.707 
9415 0 3 8.92748 3.2884 2.41836 
22663 0 3 7.72932 1.75492 2.60937 
695 0 3 6.69848 2.60295 3.9888 
3607 0 3 11.3656 3.79143 3.94035 
9171 0 3 6.48914 3.80367 4.91566 
5569 0 3 7.68534 3.53788 4.53062 
23303 0 3 6.16844 1.99246 6.80663 
16386 0 3 7.51113 4.8269 7.01782 
12950 0 3 10.7157 2.12321 8.37337 
15278 0 3 10.7996 4.55745 9.83434 
1132 0 3 11.2795 2.25609 14.885 
7354 0 3 11.1301 3.6404 14.4871 
12171 0 3 7.5321 1.48718 16.5597 
19998 0 3 9.66446 2.85697 15.8265 
18502 0 3 9.33786 1.45572 17.4897 
3942 0 3 7.56875 4.13263 25.7607 
15583 0 3 6.93723 3.72771 24.7383 
23099 0 3 7.12089 4.63827 27.3668 
5974 0 3 9.74205 3.00427 29.9157 
24351 0 3 9.54502 1.25656 32.5025 
26644 0 3 10.3248 4.6202 32.5893 
26256 0 3 10.6776 7.50219 1.57443 
24730 0 3 8.15911 8.69616 0.89817 
829 0 3 10.0783 9.23709 1.37082 
12065 0 3 6.42992 8.96738 3.38257 
23902 0 3 7.07243 7.19333 4.80681 
6693 0 3 9.17582 6.55709 4.98241 
2705 0 3 6.58392 10.7986 5.44641 
21949 0 3 6.66608 7.46161 7.65061 
1890 0 3 10.9521 10.8667 6.34733 
4875 0 3 7.26009 8.99941 9.27418 
6272 0 3 7.90853 8.29272 9.78774 
26626 0 3 9.66773 10.5145 10.2059 
18798 0 3 11.2146 10.5447 11.5781 
9712 0 3 10.274 7.10798 11.6056 
12792 0 3 6.81371 8.86566 17.4619 
20397 0 3 8.90373 8.09135 18.5438 
25803 0 3 9.19241 11.5765 17.2818 
3918 0 3 11.5121 10.3089 17.4006 
10088 0 3 7.61118 10.4339 19.9827 
482 0 3 6.97225 8.84328 21.3191 
16313 0 3 10.0755 9.49123 22.2977 
13340 0 3 6.70614 11.0078 20.8936 
8055 0 3 7.83614 8.44249 25.3879 
17423 0 3 6.21283 9.19988 24.3204 
18340 0 3 6.80184 11.3304 25.1757 
2329 0 3 10.6104 11.3548 24.8348 
2435 0 3 6.68331 11.3774 26.3669 
10084 0 3 11.4408 8.06857 28.1503 
19947 0 3 7.31081 10.6262 27.9826 
25238 0 3 8.3885 7.06898 30.2269 
9459 0 3 7.56635 11.2326 33.0515 
265 0 3 10.4154 10.058 32.1311 
12296 0 3 9.94966 11.2037 31.6415 
3772 0 3 8.90408 14.7879 2.04382 
7595 0 3 11.2271 14.5056 2.19481 
14499 0 3 11.3552 11.9502 2.98102 
8855 0 3 6.8774 14.5077 2.77319 
26117 0 3 8.21765 15.9443 3.83966 
24226 0 3 6.60245 12.0674 6.09309 
8214 0 3 10.252 12.4421 4.40348 
11841 0 3 10.0763 14.0825 6.01133 
10038 0 3 7.17056 12.1355 7.15108 
1661 0 3 9.53694 13.3226 6.72501 
23150 0 3 6.86049 12.2668 8.21182 
26509 0 3 9.15329 12.8568 8.81098 
13191 0 3 7.61476 13.7297 8.921 
25622 0 3 6.47094 13.6561 11.3659 
3620 0 3 6.80133 12.8069 12.8683 
18621 0 3 10.9523 12.6654 12.7636 
7293 0 3 10.5518 14.0011 12.3696 
8149 0 3 8.53252 15.982 13.3689 
15896 0 3 8.75521 12.503 14.0004 
21867 0 3 6.68832 15.9443 13.7114 
20281 0 3 8.32561 15.5548 14.752 
13796 0 3 7.51713 13.8788 15.674 
1662 0 3 6.89061 12.1145 17.0042 
10119 0 3 7.81782 15.7443 18.35 
24115 0 3 8.35152 13.8147 18.8928 
26291 0 3 8.69876 16.4098 20.6792 
24990 0 3 10.3816 16.6029 22.047 
573 0 3 10.4986 15.7771 23.9258 
5966 0 3 11.5696 15.8984 24.4521 
17177 0 3 8.04935 12.5994 27.4011 
1618 0 3 10.9125 13.0993 27.2182 
2883 0 3 11.1615 13.6282 26.2 
5567 0 3 10.0507 14.3218 27.8041 
7101 0 3 7.73688 16.8043 26.8039 
18726 0 3 11.5058 12.5757 27.9706 
18938 0 3 7.25162 14.9643 28.6 
17113 0 3 6.4727 12.6234 30.831 
4802 0 3 10.7872 13.0032 30.1007 
20492 0 3 6.18795 17.4073 2.33985 
2542 0 3 9.1 17.5907 1.01221 
14572 0 3 7.23001 21.9036 1.59649 
9518 0 3 6.73907 20.4732 3.78828 
3359 0 3 9.77038 22.2127 3.15446 
7515 0 3 10.9218 20.6914 3.80067 
7542 0 3 7.05697 18.2457 5.0144 
2128 0 3 11.3056 20.6004 4.90742 
4785 0 3 7.17063 20.2069 6.57291 
26557 0 3 9.10193 20.1136 6.48876 
10474 0 3 11.5066 21.5361 6.95676 
10 0 3 8.0209 17.4588 8.03326 
7543 0 3 6.78588 18.8692 8.20618 
4342 0 3 7.45375 19.4044 10.8058 
11333 0 3 10.7701 18.1802 13.1582 
9144 0 3 6.79221 21.5868 12.091 
24586 0 3 6.48126 19.4487 14.8307 
9465 0 3 8.24158 19.6022 14.9008 
24298 0 3 7.18567 21.0169 14.5775 
25305 0 3 8.82258 18.1154 15.8769 
24434 0 3 10.1294 19.5036 16.9636 
8896 0 3 6.92231 17.8764 18.2554 
5445 0 3 8.14629 20.5148 18.4949 
72 0 3 11.2458 20.7941 18.6101 
14594 0 3 6.39457 19.032 19.5242 
16921 0 3 9.78529 18.5195 20.7402 
19263 0 3 6.54838 20.9003 21.8666 
26224 0 3 9.96044 22.2125 20.6451 
513 0 3 9.78587 21.4439 21.4951 
13486 0 3 10.3717 17.7435 23.9714 
5177 0 3 11.1383 18.904 24.1383 
23189 0 3 11.4882 20.7585 22.8368 
19440 0 3 6.23611 18.3829 25.0635 
18019 0 3 11.3215 21.605 24.3417 
9006 0 3 6.31311 17.9242 27.5092 
7428 0 3 7.82345 20.2631 27.3567 
14347 0 3 8.46018 19.7575 29.3441 
15281 0 3 9.90353 20.3642 29.3677 
644 0 3 7.39742 17.0162 32.0479 
26946 0 3 7.70423 20.3376 32.963 
26376 0 3 9.82253 19.7581 32.0835 
4422 0 3 8.2477 22.019 32.3784 
1796 0 3 11.3665 22.5898 1.66088 
24155 0 3 9.46297 24.2395 1.48349 
3345 0 3 11.5543 22.5536 4.47467 
18079 0 3 7.51827 24.8677 6.12401 
8636 0 3 7.81495 27.616 5.13224 
7857 0 3 9.72402 26.2158 4.73535 
9468 0 3 9.55919 23.8871 7.69791 
5349 0 3 11.1951 24.8158 6.81224 
15591 0 3 8.27868 27.0244 7.68385 
23897 0 3 8.78378 23.2717 8.04881 
14218 0 3 11.1602 22.57 9.29491 
20235 0 3 8.70984 23.6318 10.4911 
24818 0 3 10.2285 22.6221 9.7891 
4535 0 3 7.86329 25.7436 10.6204 
14727 0 3 11.091 24.2362 10.8098 
9718 0 3 6.46807 27.0021 9.88777 
21185 0 3 10.3501 27.0387 11.5038 
4170 0 3 7.65044 22.5792 13.1777 
9625 0 3 8.19099 26.0919 12.6789 
5315 0 3 9.04352 26.9229 12.9127 
22644 0 3 9.978 26.2012 12.4514 
11161 0 3 8.33737 22.8372 14.2745 
21380 0 3 10.95 25.8297 15.0878 
12079 0 3 7.34947 26.3111 14.7916 
2483 0 3 11.2814 22.756 16.3423 
26576 0 3 7.69299 24.5147 16.3274 
15919 0 3 7.63162 24.8855 17.4095 
12821 0 3 9.55976 23.5041 26.0325 
2420 0 3 9.97778 26.3672 27.5241 
13266 0 3 6.68256 23.0203 28.8789 
5711 0 3 9.38253 23.0851 28.5981 
5402 0 3 11.203 24.674 30.6839 
2906 0 3 6.33543 27.0386 30.942 
11697 0 3 9.78725 26.0693 30.5204 
19188 0 3 11.3804 23.5103 32.1487 
6952 0 3 7.67687 27.9601 0.845558 
22858 0 3 7.78021 29.8318 1.1875 
17293 0 3 9.8763 32.7686 3.65286 
21143 0 3 8.92615 31.2966 5.42726 
26831 0 3 7.07359 33.1114 4.80394 
4460 0 3 6.54185 28.0947 6.74866 
5792 0 3 8.93875 32.5444 7.73869 
10619 0 3 9.2293 31.828 8.70273 
12953 0 3 9.54153 28.2917 14.4074 
6350 0 3 6.98418 29.5748 17.2276 
10963 0 3 7.2713 32.7964 20.9658 
4519 0 3 11.1264 30.3551 27.6269 
6601 0 3 7.70429 29.4035 29.3364 
6578 0 3 9.06878 29.6279 28.1182 
521 0 3 9.15137 29.2357 30.5832 
23421 0 3 9.98017 31.2456 29.7535 
8865 0 3 10.7034 31.9756 31.6204 
9768 0 3 14.0466 2.08835 2.01086 
10577 0 3 13.518 2.89824 3.59945 
21700 0 3 12.885 5.77462 3.41798 
23225 0 3 15.7476 5.4522 3.85109 
5246 0 3 12.9535 3.11466 5.35322 
16994 0 3 14.7944 2.80361 6.02667 
11846 0 3 13.9168 4.9541 4.82109 
70 0 3 13.577 3.55952 7.53789 
18074 0 3 13.2137 5.56986 7.74532 
2243 0 3 16.3298 4.14225 9.34999 
9676 0 3 14.1556 4.88099 9.20439 
12916 0 3 12.2195 4.23025 11.3242 
10692 0 3 15.9979 3.24722 10.9176 
13195 0 3 14.1723 5.47456 14.0301 
10595 0 3 16.1685 4.67233 14.5269 
22523 0 3 14.1455 1.63832 16.0886 
4978 0 3 12.1962 4.2283 15.5072 
2626 0 3 13.0134 5.45943 16.7683 
18467 0 3 13.7506 2.50482 17.7293 
6882 0 3 16.4346 4.06177 17.9177 
25209 0 3 14.8577 5.29211 17.7909 
7664 0 3 16.9567 1.72428 20.5966 
7914 0 3 16.3403 4.19546 20.425 
13836 0 3 15.4494 3.90424 21.6191 
3911 0 3 14.9869 1.53179 22.5641 
6641 0 3 12.592 3.30472 23.5575 
21910 0 3 13.718 2.05953 25.0292 
1624 0 3 15.7727 2.7416 31.0993 
19216 0 3 12.8427 1.46427 32.8757 
22200 0 3 12.9458 3.72453 32.3328 
23179 0 3 14.8346 3.14156 31.9803 
156 0 3 12.4945 4.75819 32.1036 
4212 0 3 12.4405 7.08996 0.826362 
14434 0 3 15.4235 7.62128 0.925555 
8460 0 3 12.0271 7.15161 3.94222 
20172 0 3 12.0004 10.0876 3.6017 
25303 0 3 14.956 9.96518 3.98592 
22441 0 3 13.2858 6.92234 7.11997 
22333 0 3 16.5403 7.37922 6.76111 
12918 0 3 12.9873 9.43979 7.2391 
22529 0 3 13.8517 11.0629 8.08109 
24086 0 3 15.6155 9.9478 11.2983 
13384 0 3 15.902 11.5605 11.3561 
25128 0 3 14.8458 7.9458 12.536 
4547 0 3 16.9373 7.61157 12.8631 
18953 0 3 12.9333 6.52668 14.5909 
11705 0 3 13.8665 8.82427 15.454 
14359 0 3 12.0747 7.24856 17.4293 
4709 0 3 14.6992 7.01907 17.9902 
10326 0 3 13.2241 10.7348 25.7275 
23702 0 3 11.695 11.0614 28.9338 
18942 0 3 13.3831 9.65549 30.5564 
8504 0 3 15.6387 14.7426 0.757278 
9296 0 3 14.5876 15.5214 2.51494 
5987 0 3 13.2454 11.8664 3.07561 
20902 0 3 15.6129 16.8516 3.72174 
2450 0 3 12.9984 11.7426 9.38978 
12598 0 3 11.9769 13.4316 13.4563 
2053 0 3 14.8472 16.7564 20.5671 
25380 0 3 16.2473 15.6796 21.4032 
701 0 3 12.3865 11.912 25.1492 
5497 0 3 15.478 13.6987 27.1682 
8254 0 3 14.2052 11.596 29.4382 
15691 0 3 13.2856 13.0192 29.9731 
3195 0 3 12.0164 15.0017 30.5221 
15963 0 3 15.1227 13.8628 31.9736 
14862 0 3 15.9725 15.7516 31.9442 
13769 0 3 14.4025 17.7826 2.31134 
23485 0 3 16.4349 17.0759 2.36654 
15864 0 3 14.8566 19.105 1.85465 
26397 0 3 16.4774 20.4369 1.56814 
22269 0 3 15.3841 22.3809 1.38822 
9716 0 3 15.4875 21.1354 10.4457 
2684 0 3 14.5875 20.1151 15.1513 
5453 0 3 16.6009 21.9158 13.8556 
25767 0 3 11.5931 17.6394 16.3033 
24485 0 3 12.1913 18.8549 16.3095 
17882 0 3 13.7819 20.9121 16.3588 
4922 0 3 15.8148 19.9091 17.5871 
5936 0 3 14.0877 21.2345 18.7987 
9554 0 3 14.0445 21.9719 17.1505 
2130 0 3 13.9001 18.6206 19.693 
21125 0 3 14.7116 21.8058 21.162 
10904 0 3 15.1325 17.9731 23.1841 
726 0 3 13.2879 22.3318 23.9373 
24296 0 3 12.7152 20.1195 24.812 
18950 0 3 13.1261 18.4522 27.191 
4589 0 3 11.8375 19.9859 26.8989 
26000 0 3 12.7207 19.3438 28.1882 
19614 0 3 16.0712 21.4876 28.6884 
18550 0 3 12.8845 18.1756 29.7419 
5982 0 3 13.1792 20.2056 29.8067 
7179 0 3 14.3111 23.62 1.63121 
10330 0 3 14.8645 27.2474 0.923539 
20906 0 3 14.1626 23.6271 5.51746 
9810 0 3 15.8925 24.5603 4.77939 
12608 0 3 12.5501 26.8607 4.92778 
2353 0 3 13.1999 26.5577 6.12562 
15452 0 3 16.3725 23.4075 6.49862 
14242 0 3 15.6929 26.3835 7.88323 
6848 0 3 15.9492 22.6695 8.45578 
11958 0 3 15.7848 23.2836 9.59732 
7779 0 3 11.8632 25.8667 9.22065 
4037 0 3 15.9229 25.49 9.26074 
2406 0 3 12.9877 23.8206 10.3415 
14006 0 3 12.4856 25.0944 10.9348 
5206 0 3 12.484 24.2982 13.3658 
12732 0 3 15.8641 25.1609 11.6907 
13517 0 3 14.5051 25.2915 15.7636 
321 0 3 16.8403 24.5443 15.76 
4800 0 3 12.2005 23.7572 17.8765 
7262 0 3 11.657 25.4626 17.725 
24499 0 3 13.1378 24.2638 20.3603 
15479 0 3 13.4905 24.2686 19.3205 
5556 0 3 15.1738 27.2615 23.3838 
19829 0 3 14.853 26.8363 25.7354 
11326 0 3 13.4056 22.7691 26.1196 
12930 0 3 15.9339 25.752 29.2468 
25878 0 3 14.8284 26.6505 30.7177 
24496 0 3 12.9812 22.5941 32.772 
9281 0 3 12.6025 25.4271 31.947 
19634 0 3 13.1923 32.6576 1.19163 
11701 0 3 13.7229 28.3321 3.07087 
26648 0 3 12.4115 32.0455 2.65415 
12615 0 3 13.8428 28.5016 5.22407 
15831 0 3 15.7045 28.8634 9.98197 
3198 0 3 13.3818 30.5402 10.4033 
21594 0 3 13.2537 29.6866 14.3613 
13767 0 3 14.5357 29.274 15.5871 
5524 0 3 12.0932 31.011 16.926 
20107 0 3 14.4362 31.513 15.7553 
2574 0 3 16.0982 31.3961 17.5944 
20338 0 3 15.2534 29.9854 17.3841 
8629 0 3 13.0587 32.5302 17.8561 
23497 0 3 16.4537 29.5313 18.9694 
26544 0 3 14.9492 30.5987 19.4586 
26514 0 3 14.18 33.041 31.5303 
2313 0 3 20.5363 3.67346 1.15476 
26111 0 3 19.8721 3.04676 2.33181 
2716 0 3 19.7243 1.62864 3.61025 
1032 0 3 19.0739 3.5213 3.40499 
19061 0 3 18.0582 2.47934 4.96305 
21953 0 3 17.6073 2.70985 5.83605 
4676 0 3 22.0767 3.43696 5.76616 
8063 0 3 21.1354 2.55472 6.66359 
7796 0 3 18.2339 4.90607 8.13089 
17828 0 3 17.4535 5.56313 8.20434 
12348 0 3 22.3367 1.83652 10.266 
25659 0 3 19.4486 3.19005 10.2461 
21549 0 3 20.9543 5.56737 11.1371 
9311 0 3 22.3343 3.85478 12.2827 
6503 0 3 17.04 6.07247 13.4781 
4902 0 3 21.161 5.33382 14.1086 
15409 0 3 21.5938 6.14701 14.6506 
6373 0 3 19.3777 1.74056 15.5597 
24910 0 3 20.1322 2.54258 15.963 
17278 0 3 19.3873 4.11435 16.6112 
10376 0 3 18.0523 1.72426 17.1281 
20091 0 3 19.2017 3.36886 17.4964 
6199 0 3 19.3075 5.80989 17.8651 
18476 0 3 17.3007 2.81839 19.1894 
3921 0 3 17.0939 1.83188 22.8512 
8628 0 3 19.0583 2.79979 23.9393 
21387 0 3 21.49 2.12223 29.5505 
13772 0 3 20.0564 2.2221 30.1921 
8624 0 3 17.3814 4.37326 32.0845 
20015 0 3 22.0034 5.36254 32.8683 
8058 0 3 21.8819 10.1823 2.60966 
21219 0 3 19.9516 7.49702 7.72692 
2051 0 3 17.59 9.87636 6.33517 
25080 0 3 19.4118 11.5508 7.89928 
5710 0 3 17.2351 6.20202 9.03267 
23255 0 3 18.1651 9.55199 9.2847 
12461 0 3 20.0892 8.4732 9.09438 
14743 0 3 18.412 11.4749 8.83175 
5729 0 3 21.9646 8.35717 9.98018 
8447 0 3 19.6333 10.5807 10.1861 
5911 0 3 18.7324 6.40207 12.9949 
9612 0 3 20.7711 7.00525 13.1294 
23948 0 3 21.89 7.63867 12.0863 
10682 0 3 18.4727 9.94148 12.3187 
4664 0 3 17.8747 10.6613 13.0666 
12008 0 3 22.1114 11.2261 11.6678 
23458 0 3 18.6554 6.37884 14.9246 
13727 0 3 20.4705 10.1616 14.1337 
6280 0 3 21.3548 8.13671 15.268 
3815 0 3 17.4571 6.6357 19.6352 
23595 0 3 20.5579 8.09805 19.7505 
19759 0 3 21.8152 8.34064 19.5542 
788 0 3 22.2628 7.97599 20.488 
22335 0 3 19.4547 11.0936 20.4485 
1260 0 3 22.0947 9.49958 25.6062 
19369 0 3 19.104 16.4683 1.65163 
8329 0 3 19.3692 13.7202 2.85858 
4778 0 3 22.0299 16.6258 3.24727 
12797 0 3 20.2197 15.8024 5.30263 
11543 0 3 20.9992 12.5214 7.47462 
9307 0 3 17.3763 12.4795 9.48507 
20715 0 3 19.1555 13.4785 8.24564 
8904 0 3 20.6874 14.8431 11.316 
7444 0 3 21.7903 16.1922 10.7051 
10035 0 3 20.6747 16.7681 10.6017 
23558 0 3 21.3665 14.0136 13.984 
8998 0 3 19.4991 16.4925 15.0243 
7536 0 3 22.0559 15.419 21.4238 
25376 0 3 18.4814 13.6012 22.584 
22800 0 3 19.5453 14.0782 23.2825 
21105 0 3 21.501 12.0383 25.8059 
16867 0 3 18.2126 11.9085 27.3393 
15883 0 3 19.3652 14.3119 29.2073 
24727 0 3 22.3609 14.3015 28.1082 
1232 0 3 17.8301 12.1188 33.0668 
20975 0 3 19.4433 13.4918 32.4172 
15312 0 3 20.3945 15.154 31.6339 
6315 0 3 17.6723 16.6112 32.9166 
13741 0 3 17.0082 18.6 1.91733 
21051 0 3 21.5114 18.9728 1.51684 
10228 0 3 19.3055 17.7637 3.05445 
1980 0 3 20.1168 18.4335 2.60845 
9218 0 3 22.0419 17.6536 3.02616 
11960 0 3 17.7596 20.6437 3.55156 
200 0 3 18.1208 18.53 5.1906 
25300 0 3 21.8574 18.331 5.84155 
8097 0 3 20.8795 20.6522 4.60813 
19467 0 3 20.3895 17.6855 7.23426 
23020 0 3 18.9352 20.9695 10.9598 
5113 0 3 21.276 17.7122 12.4902 
10811 0 3 18.1592 21.1021 18.677 
23232 0 3 22.1652 21.6849 20.175 
24416 0 3 17.5179 22.0613 20.9967 
11699 0 3 20.4633 21.4806 24.6647 
21196 0 3 21.9257 22.1455 26.8758 
22500 0 3 20.4994 22.1961 31.2218 
18718 0 3 20.1582 18.5935 31.7206 
11818 0 3 21.8366 22.6351 2.10165 
16913 0 3 21.6208 25.8588 1.39478 
3265 0 3 18.4817 26.7755 1.91846 
19497 0 3 19.7604 23.8352 3.00479 
19849 0 3 21.604 23.7023 3.27405 
21892 0 3 19.7054 24.845 3.29138 
9537 0 3 17.4446 27.8406 3.00773 
10089 0 3 19.0426 26.3301 3.14691 
1327 0 3 17.1874 23.0764 5.01562 
909 0 3 22.2124 25.306 4.56207 
17330 0 3 18.6901 22.6865 6.5699 
18765 0 3 17.536 25.6246 7.50214 
8289 0 3 17.8304 26.8148 6.62406 
4420 0 3 18.1984 24.7769 8.77868 
1776 0 3 19.0881 27.447 12.4169 
20569 0 3 17.5284 25.7648 16.1148 
6224 0 3 18.464 27.058 15.2268 
7687 0 3 19.4915 22.8577 17.475 
8209 0 3 17.9584 23.0329 21.2261 
13036 0 3 17.202 24.6943 26.2257 
5722 0 3 21.893 24.8177 26.5627 
16961 0 3 17.4306 23.3159 28.5382 
4693 0 3 18.585 25.7169 28.0743 
20942 0 3 21.5395 25.8749 27.8837 
13775 0 3 19.5111 27.5934 28.6121 
170 0 3 19.2985 25.8375 31.3015 
1091 0 3 20.6515 24.4836 31.0923 
12077 0 3 20.6408 23.0276 32.8205 
5044 0 3 22.1492 26.0584 32.3224 
23734 0 3 19.0309 29.1072 1.94856 
9329 0 3 22.3085 29.6336 1.70093 
6736 0 3 19.3982 29.3368 3.61277 
14360 0 3 21.7313 32.9927 5.54056 
14396 0 3 19.8749 27.9428 11.9032 
15898 0 3 21.6903 31.163 13.4305 
21647 0 3 21.7748 30.4013 14.5046 
26207 0 3 18.7987 31.9412 14.4285 
2464 0 3 17.866 32.2995 15.1825 
12535 0 3 22.1212 28.4677 15.7659 
22708 0 3 22.2485 30.423 18.8024 
9270 0 3 18.5988 33.2293 18.5478 
22208 0 3 18.7317 30.5493 19.0505 
4332 0 3 20.5482 31.0331 19.2352 
21696 0 3 18.4529 30.8614 21.9722 
20957 0 3 20.3664 31.5493 21.7986 
10011 0 3 21.9122 32.8221 31.5426 
11737 0 3 21.404 33.1247 32.8078 
23111 0 3 23.1642 0.979801 2.44403 
5893 0 3 26.3718 6.02904 1.18315 
337 0 3 24.5855 2.6039 4.18408 
10201 0 3 25.1945 3.51469 3.71791 
5326 0 3 22.7562 1.37823 5.67329 
13726 0 3 24.8252 5.36326 5.46348 
11839 0 3 23.4679 4.12068 6.88479 
24779 0 3 25.0663 4.54052 7.72786 
3625 0 3 24.0418 0.987687 10.4647 
22537 0 3 22.9216 4.35257 10.7006 
5983 0 3 25.8785 5.67866 10.8523 
4226 0 3 24.6403 2.62294 12.745 
21493 0 3 26.3859 4.84467 11.8015 
10169 0 3 25.722 2.46637 14.5691 
12978 0 3 27.7551 3.32662 16.2989 
7565 0 3 23.8894 2.03748 17.3466 
8749 0 3 24.0832 5.3377 25.4203 
23525 0 3 22.6432 2.5953 26.3419 
12804 0 3 22.4515 4.2016 29.1474 
4769 0 3 25.024 4.9789 28.2084 
1418 0 3 23.9676 4.78872 32.7848 
4504 0 3 23.5144 6.35833 3.81147 
15268 0 3 26.9346 6.53189 3.1273 
18011 0 3 22.9497 10.5082 3.59923 
157 0 3 24.6807 6.4703 5.68612 
23086 0 3 26.2028 9.36251 5.77504 
20490 0 3 25.4651 6.93403 7.91067 
23406 0 3 24.8106 9.02459 7.11305 
5449 0 3 23.9124 11.0619 7.67308 
22178 0 3 23.3074 8.95637 9.45776 
1366 0 3 27.2405 8.67664 9.17203 
25090 0 3 24.6453 10.9016 8.8639 
24763 0 3 26.336 10.3399 11.2529 
12965 0 3 27.4026 10.7747 11.7444 
13035 0 3 22.4779 9.69835 21.4238 
21560 0 3 26.4797 9.74727 21.3911 
24493 0 3 22.5926 9.69691 22.6169 
3814 0 3 24.2086 8.30774 25.4211 
23439 0 3 25.3948 10.0824 25.5488 
21764 0 3 25.0059 14.6167 2.53512 
19027 0 3 22.671 16.7175 2.02842 
13754 0 3 22.5631 12.7023 5.49583 
14707 0 3 22.4946 16.2075 4.96255 
606 0 3 25.929 16.1709 5.39712 
1272 0 3 25.9009 13.2733 8.29335 
494 0 3 22.4465 15.3333 8.83826 
534 0 3 24.4142 16.3086 9.16838 
18003 0 3 23.8148 15.0718 10.9219 
16277 0 3 25.4369 13.8358 11.5128 
15050 0 3 22.5102 12.3593 15.1577 
12059 0 3 25.3146 13.9009 14.5167 
12411 0 3 24.358 12.8788 16.9829 
11779 0 3 23.6495 16.2753 17.4379 
1269 0 3 27.6639 16.2764 29.0258 
7109 0 3 22.7211 14.4303 31.4805 
9778 0 3 23.667 16.5656 32.6206 
8983 0 3 24.7493 18.6855 1.61202 
22075 0 3 26.4108 19.7033 3.05829 
6296 0 3 25.9637 22.0585 3.5711 
15196 0 3 24.3889 19.2058 6.10406 
20568 0 3 24.5082 21.3028 4.77017 
25084 0 3 27.6458 17.625 7.45937 
19078 0 3 23.2721 17.5645 11.5775 
17667 0 3 26.1998 18.6296 9.91297 
3103 0 3 25.5123 19.8809 13.5878 
19320 0 3 23.515 20.9086 14.7239 
13898 0 3 23.3893 22.1798 14.6772 
8105 0 3 24.8463 21.97 16.0141 
2753 0 3 25.4957 18.784 22.025 
1228 0 3 23.1184 21.4659 20.6873 
21299 0 3 23.5576 22.2153 27.7487 
8651 0 3 25.3171 20.996 26.3561 
7265 0 3 24.1045 17.7073 29.5181 
22146 0 3 26.8806 21.8416 28.6662 
6862 0 3 24.8327 17.823 30.5383 
16861 0 3 22.6716 19.8281 30.8948 
9283 0 3 26.6359 18.9555 31.161 
1645 0 3 22.4672 21.3218 29.9198 
18984 0 3 27.6358 17.0374 31.8634 
8747 0 3 26.5451 18.2137 32.86 
2699 0 3 25.9817 19.7707 31.5694 
15964 0 3 26.9342 23.193 1.17719 
16530 0 3 24.9998 24.9254 2.43239 
5437 0 3 26.2642 25.0709 2.14664 
9286 0 3 27.815 24.4176 2.70632 
8403 0 3 22.9135 26.8246 3.49483 
7825 0 3 27.7632 23.3048 5.58273 
11806 0 3 27.6198 24.4517 4.41461 
18054 0 3 27.0519 24.7758 5.61311 
6491 0 3 25.1187 26.1115 5.43286 
16256 0 3 27.3895 26.3345 5.62083 
20460 0 3 27.5312 23.9548 6.48631 
14455 0 3 23.4793 24.5896 24.1514 
23243 0 3 26.9151 27.6989 25.6335 
24544 0 3 22.6245 22.91 26.4315 
26823 0 3 27.7153 22.7463 26.9497 
3687 0 3 26.8596 27.6827 28.7548 
5124 0 3 24.5122 26.9279 32.6101 
279 0 3 24.7101 28.4075 1.79637 
15271 0 3 23.24 31.1979 0.75944 
12409 0 3 22.6309 30.7235 3.25667 
10748 0 3 25.8259 30.8768 2.59571 
15894 0 3 24.9101 31.3044 7.28242 
24792 0 3 24.8661 32.2057 6.63988 
15967 0 3 22.6268 28.7383 8.24474 
21890 0 3 24.0796 29.3416 9.75045 
7760 0 3 26.1464 32.0944 8.38473 
26933 0 3 26.8298 33.0989 8.60783 
18355 0 3 23.6029 30.6668 11.8677 
9374 0 3 25.5275 32.2317 12.3982 
8679 0 3 26.3511 33.1291 12.4876 
7393 0 3 25.8948 31.6677 14.0577 
23359 0 3 24.514 31.7324 13.7193 
18836 0 3 26.217 29.9405 15.9781 
25470 0 3 25.42 33.0332 15.6361 
1613 0 3 25.6718 32.5478 17.2353 
23869 0 3 24.2912 28.4095 25.7285 
6954 0 3 25.5497 28.8054 24.565 
23940 0 3 22.7936 30.5194 25.8493 
23768 0 3 26.7694 28.7762 27.463 
10687 0 3 23.9056 31.2967 26.5405 
9790 0 3 22.6467 28.7455 28.0112 
8406 0 3 27.0439 28.7193 31.2771 
14436 0 3 22.667 29.0426 32.0513 
3336 0 3 24.7071 32.0314 31.7497 
16036 0 3 27.8553 4.2739 2.10841 
21553 0 3 30.8093 3.58734 3.20203 
20585 0 3 31.8365 3.39439 3.33567 
23877 0 3 32.741 4.03987 3.84606 
15688 0 3 29.2231 1.97991 5.62929 
23477 0 3 30.8724 1.62549 6.1095 
23933 0 3 27.8789 3.18212 6.01913 
503 0 3 32.4966 5.15434 5.10768 
26506 0 3 33.061 4.64347 5.8695 
25496 0 3 30.1486 3.49711 8.24333 
3113 0 3 28.6538 3.02988 11.4938 
17744 0 3 29.6372 3.4977 11.1333 
26633 0 3 32.9396 5.05455 11.1862 
4407 0 3 32.7227 1.28213 12.748 
12073 0 3 32.9956 5.57989 13.1382 
9698 0 3 31.812 4.78422 16.1743 
16826 0 3 32.112 5.49796 19.9647 
26231 0 3 30.1543 2.80375 22.2165 
3 0 3 29.4186 2.62611 25.2202 
18964 0 3 31.7369 1.62848 27.1669 
2912 0 3 32.3794 1.83952 30.9696 
23717 0 3 32.455 3.43413 31.2862 
6520 0 3 31.2309 5.69955 31.456 
11250 0 3 30.8026 6.44055 1.21295 
2926 0 3 29.6871 7.49069 0.968928 
12576 0 3 29.9747 9.35883 2.47116 
19537 0 3 31.6888 9.43764 1.06721 
19582 0 3 32.0251 11.3289 1.87326 
17376 0 3 28.5847 7.26749 4.37238 
19180 0 3 28.6478 6.91324 5.2901 
25449 0 3 31.1182 9.09226 5.39075 
1772 0 3 29.3543 10.7362 5.50814 
17673 0 3 31.615 11.1872 5.07702 
8871 0 3 31.1987 7.25782 6.76583 
5971 0 3 28.3752 11.5564 6.49557 
13188 0 3 28.175 6.21117 8.29618 
22565 0 3 30.6048 7.46875 8.52889 
12066 0 3 32.5112 8.0486 8.69718 
8282 0 3 28.8493 11.0802 9.37278 
21295 0 3 29.985 10.6944 9.73836 
1287 0 3 31.7107 10.4244 8.34609 
26940 0 3 31.6904 6.9268 9.87147 
17386 0 3 29.2544 9.46495 11.3827 
17105 0 3 29.4038 9.58151 12.6788 
20929 0 3 30.2272 9.66716 11.9883 
18948 0 3 31.2553 9.76932 16.3537 
15171 0 3 31.856 9.78638 19.2553 
4086 0 3 30.132 8.55347 20.9946 
6387 0 3 29.8299 9.39064 32.5461 
7351 0 3 27.8663 14.5682 2.37432 
15108 0 3 30.3972 16.7894 2.22256 
9962 0 3 31.2617 14.1574 2.71032 
15028 0 3 31.6124 14.9401 3.9775 
14660 0 3 27.9298 16.5172 3.51532 
8066 0 3 28.1709 13.0584 5.55783 
9305 0 3 28.0678 14.8277 4.6463 
4045 0 3 33.0449 11.8908 7.78688 
2331 0 3 28.8836 14.8927 6.36137 
4248 0 3 31.6846 15.7176 18.313 
18723 0 3 30.2144 13.9979 21.6072 
23489 0 3 33.0469 16.1672 23.4449 
22080 0 3 31.624 16.2756 24.0201 
7982 0 3 29.8386 12.3381 26.58 
8999 0 3 30.4419 14.6835 27.693 
19945 0 3 32.2401 14.6517 26.4084 
22398 0 3 32.5225 16.6349 27.2076 
9004 0 3 32.3445 17.3385 1.0189 
269 0 3 33.2156 21.9129 1.36407 
14265 0 3 30.7479 19.3825 2.68643 
2196 0 3 29.975 22.3403 2.98379 
19060 0 3 32.2562 21.7199 2.84725 
26382 0 3 32.8834 21.0785 3.52966 
2701 0 3 30.6949 17.8563 5.31853 
13536 0 3 30.3324 21.3775 6.69567 
4398 0 3 32.1908 17.57 8.17031 
21791 0 3 30.9465 19.2849 9.26837 
3013 0 3 32.2484 18.9349 9.03792 
6826 0 3 32.9043 20.0732 8.17976 
16021 0 3 31.7195 20.2826 9.57351 
9310 0 3 31.2693 21.4244 9.22211 
25668 0 3 28.8736 20.0656 10.0346 
12989 0 3 33.2536 20.1186 12.927 
2190 0 3 32.2737 21.2521 13.3861 
7809 0 3 28.9325 21.8757 16.3817 
6557 0 3 31.628 18.0123 20.3179 
19118 0 3 30.2057 20.719 22.0157 
20964 0 3 33.1573 20.4612 24.2728 
22128 0 3 29.0725 22.2974 25.7037 
16299 0 3 32.6529 20.0352 27.0878 
2365 0 3 32.2882 21.1805 27.1419 
12839 0 3 29.1461 17.155 27.9831 
11554 0 3 30.4267 18.8205 28.1934 
2235 0 3 31.5988 22.3884 29.4702 
22387 0 3 31.2651 17.5963 30.5008 
6191 0 3 32.5041 18.2362 30.6131 
15269 0 3 29.8756 18.8102 33.1662 
22756 0 3 28.58 27.4828 1.63632 
24188 0 3 33.1918 24.2385 3.63359 
19154 0 3 29.6966 22.4553 5.99899 
1337 0 3 31.1816 22.9508 7.91526 
3373 0 3 29.3678 25.4328 6.86099 
5744 0 3 29.4389 22.8964 10.4967 
11695 0 3 30.4045 22.4569 11.0194 
1831 0 3 32.1455 27.0871 12.8103 
9829 0 3 32.6865 23.2602 13.6456 
19288 0 3 32.3617 24.6368 14.4225 
21061 0 3 31.493 27.2728 13.4917 
10740 0 3 29.6038 22.9326 15.2173 
16487 0 3 32.7288 24.0066 17.4386 
8695 0 3 32.7159 25.111 19.5177 
17323 0 3 31.6705 24.3845 21.3809 
22790 0 3 30.7635 25.9988 23.9972 
9168 0 3 32.1129 23.0773 24.4195 
25995 0 3 30.6692 27.2503 25.7197 
18631 0 3 31.3648 23.227 27.6741 
4199 0 3 33.0287 24.1864 26.7816 
16829 0 3 29.0744 26.2077 26.848 
18976 0 3 27.8455 26.647 27.5638 
2660 0 3 29.7676 24.3371 27.9836 
19059 0 3 30.2268 27.7158 29.2894 
23356 0 3 30.1102 24.1883 31.3548 