LAMMPS (3 Mar 2020)
OMP_NUM_THREADS environment is not set. Defaulting to 1 thread. (src/comm.cpp:94)
  using 1 OpenMP thread(s) per MPI task
Reading restart file ...
  restart file = 3 Mar 2020, LAMMPS = 3 Mar 2020
  restoring atom style full from restart
  orthogonal box = (0.73598 0.73598 0.73598) to (33.264 33.264 33.264)
  6 by 6 by 6 MPI processor grid
  restoring pair style hybrid/overlay from restart
  restoring bond style fene from restart
  27950 atoms
  8700 bonds
Finding 1-2 1-3 1-4 neighbors ...
  special bond factors lj:   0          1          1         
  special bond factors coul: 0          1          1         
  2 = max # of 1-2 neighbors
  6 = max # of special neighbors
  special bonds CPU = 2.49073 secs
  read_restart CPU = 2.64106 secs
Resetting global fix info from restart file:
  fix style: nvt, fix ID: pt
50 rigid bodies with 950 atoms
Resetting global fix info from restart file:
  fix style: rigid/nvt, fix ID: ri
System init for write_data ...
PPPM initialization ...
  using 12-bit tables for long-range coulomb (src/kspace.cpp:332)
  G vector (1/distance) = 1.14923
  grid = 90 90 90
  stencil order = 5
  estimated absolute RMS force accuracy = 0.00011112
  estimated relative force accuracy = 0.00011112
  using double precision FFTW3
  3d grid and FFT values/proc = 8000 3600
All restart file global fix info was re-assigned
Unused restart file peratom fix info:
  fix style: STORE, fix ID: par_COMPUTE_STORE
WARNING: Neighbor exclusions used with KSpace solver may give inconsistent Coulombic energies (src/neighbor.cpp:486)
Neighbor list info ...
  update every 1 steps, delay 0 steps, check yes
  max neighbors/atom: 2000, page size: 100000
  master list distance cutoff = 2.8
  ghost atom cutoff = 2.8
  binsize = 1.4, bins = 24 24 24
  2 neighbor lists, perpetual/occasional/extra = 2 0 0
  (1) pair lj/cut, perpetual
      attributes: half, newton on
      pair build: half/bin/newton
      stencil: half/bin/3d/newton
      bin: standard
  (2) pair coul/long, perpetual, skip from (1)
      attributes: half, newton on
      pair build: skip
      stencil: none
      bin: none
PPPM initialization ...
  using 12-bit tables for long-range coulomb (src/kspace.cpp:332)
  G vector (1/distance) = 1.14923
  grid = 90 90 90
  stencil order = 5
  estimated absolute RMS force accuracy = 0.00011112
  estimated relative force accuracy = 0.00011112
  using double precision FFTW3
  3d grid and FFT values/proc = 8000 3600
WARNING: Neighbor exclusions used with KSpace solver may give inconsistent Coulombic energies (src/neighbor.cpp:486)
Neighbor list info ...
  update every 1 steps, delay 0 steps, check yes
  max neighbors/atom: 2000, page size: 100000
  master list distance cutoff = 2.8
  ghost atom cutoff = 2.8
  binsize = 1.4, bins = 24 24 24
  2 neighbor lists, perpetual/occasional/extra = 2 0 0
  (1) pair lj/cut, perpetual
      attributes: half, newton on
      pair build: half/bin/newton
      stencil: half/bin/3d/newton
      bin: standard
  (2) pair coul/long, perpetual, skip from (1)
      attributes: half, newton on
      pair build: skip
      stencil: none
      bin: none
Setting up Verlet run ...
  Unit style    : lj
  Current step  : 12000000
  Time step     : 0.005
Per MPI rank memory allocation (min/avg/max) = 10.14 | 10.19 | 10.29 Mbytes
Step Temp Press Volume 
12000000   0.79786187   0.03631389    34417.053 
12010000   0.79817502 -0.054753751    34417.053 
12020000   0.80404739  -0.16195293    34417.053 
12030000    0.8011393 -0.093487563    34417.053 
12040000   0.80027618  -0.13704367    34417.053 
12050000   0.80397759 -0.098573841    34417.053 
12060000   0.80097026  -0.11434424    34417.053 
12070000   0.79554339  -0.10393795    34417.053 
12080000   0.79313195  -0.09329777    34417.053 
12090000   0.79394132  -0.17454197    34417.053 
12100000   0.79673396  -0.10005155    34417.053 
12110000   0.79424056   -0.1754884    34417.053 
12120000   0.79822035 -0.083703368    34417.053 
12130000   0.80088087   -0.1874293    34417.053 
12140000   0.79625108  -0.04978943    34417.053 
12150000   0.80495003  -0.11538502    34417.053 
12160000   0.79793404  -0.18114851    34417.053 
12170000   0.80601822  -0.12867271    34417.053 
12180000   0.79728838 -0.098140931    34417.053 
12190000   0.80420881  -0.11945082    34417.053 
12200000   0.80530792  -0.18156579    34417.053 
12210000   0.79787194  -0.14078363    34417.053 
12220000   0.80322266 -0.082199852    34417.053 
12230000   0.79799357  -0.13923452    34417.053 
12240000     0.798392  -0.11490195    34417.053 
12250000   0.80031474 -0.087706403    34417.053 
12260000   0.80029689  -0.16662683    34417.053 
12270000   0.80014599  -0.13190919    34417.053 
12280000   0.80139781 -0.098759747    34417.053 
12290000   0.79957006  -0.19194917    34417.053 
12300000   0.79855794  -0.12997894    34417.053 
12310000   0.79999339  -0.12420802    34417.053 
12320000   0.80164038  -0.11150458    34417.053 
12330000   0.79821471  -0.13249832    34417.053 
12340000   0.80057467 -0.090190874    34417.053 
12350000   0.80509319  -0.13788312    34417.053 
12360000   0.79682902  -0.10255437    34417.053 
12370000    0.7971196   -0.2149124    34417.053 
12380000   0.79979722  -0.19252086    34417.053 
12390000    0.8074695  -0.11395762    34417.053 
12400000   0.80483192  -0.18972844    34417.053 
12410000   0.79518758  -0.13471092    34417.053 
12420000   0.79588444 -0.072770172    34417.053 
12430000   0.80386478   -0.1151528    34417.053 
12440000   0.79430764  -0.13027045    34417.053 
12450000   0.79725184  -0.16803426    34417.053 
12460000   0.79783203  -0.16292245    34417.053 
12470000   0.80207202 -0.088122798    34417.053 
12480000    0.8042586  -0.13000318    34417.053 
12490000   0.80262901  -0.12705335    34417.053 
12500000   0.80369273   -0.0991552    34417.053 
12510000   0.80210824  -0.15239295    34417.053 
12520000   0.79768896   -0.1022658    34417.053 
12530000   0.79803462  -0.16391637    34417.053 
12540000   0.79777363  -0.20410044    34417.053 
12550000   0.80214729  -0.13755585    34417.053 
12560000   0.80389906  -0.10489442    34417.053 
12570000   0.79163853  -0.17543277    34417.053 
12580000   0.80412847  -0.17569716    34417.053 
12590000   0.80527522  -0.13923221    34417.053 
12600000   0.80191363  -0.17432246    34417.053 
12610000    0.8007007  -0.09293261    34417.053 
12620000   0.80657513   -0.1432265    34417.053 
12630000    0.7973255  -0.18103688    34417.053 
12640000   0.80322057 -0.091978088    34417.053 
12650000    0.7959826 -0.098349467    34417.053 
12660000   0.79992315 -0.093244847    34417.053 
12670000   0.80018349  -0.15109771    34417.053 
12680000   0.79972285 -0.061674646    34417.053 
12690000   0.80163921   -0.2193885    34417.053 
12700000   0.80496323  -0.11298053    34417.053 
12710000   0.79952488  -0.12125309    34417.053 
12720000   0.80211971  -0.13789529    34417.053 
12730000    0.7981898  -0.16127041    34417.053 
12740000   0.79644117  -0.12374797    34417.053 
12750000   0.80315738  -0.18282567    34417.053 
12760000   0.79649585  -0.16154408    34417.053 
12770000   0.79595524   -0.1527569    34417.053 
12780000   0.79310918  -0.17199766    34417.053 
12790000   0.80288098  -0.19815213    34417.053 
12800000   0.79644604 -0.082444967    34417.053 
12810000   0.79817613  -0.11065589    34417.053 
12820000   0.80578902  -0.15297758    34417.053 
12830000    0.7980966  -0.18602796    34417.053 
12840000   0.79599604  -0.21942139    34417.053 
12850000   0.80181254  -0.10314307    34417.053 
12860000   0.80004714  -0.17956482    34417.053 
12870000   0.79751305  -0.14900362    34417.053 
12880000   0.80580756  -0.14662954    34417.053 
12890000   0.79951667  -0.18699242    34417.053 
12900000   0.80672156  -0.14194247    34417.053 
12910000   0.79649657  -0.18224071    34417.053 
12920000   0.79034003  -0.19724314    34417.053 
12930000   0.80417934  -0.13214837    34417.053 
12940000   0.79922119  -0.17459675    34417.053 
12950000   0.79994482  -0.15400401    34417.053 
12960000   0.80191926 -0.045782297    34417.053 
12970000   0.80040011  -0.15406603    34417.053 
12980000   0.80235854   -0.1133497    34417.053 
12990000   0.79541555  -0.13545449    34417.053 
13000000   0.80084933  -0.11745371    34417.053 
Loop time of 8990.47 on 216 procs for 1000000 steps with 27950 atoms

Performance: 48050.898 tau/day, 111.229 timesteps/s
99.8% CPU use with 216 MPI tasks x 1 OpenMP threads

MPI task timing breakdown:
Section |  min time  |  avg time  |  max time  |%varavg| %total
---------------------------------------------------------------
Pair    | 78.47      | 113.12     | 168.78     | 162.9 |  1.26
Bond    | 0.62643    | 1.9088     | 2.8472     |  30.9 |  0.02
Kspace  | 7841.4     | 8019.3     | 8109.3     |  63.0 | 89.20
Neigh   | 126.02     | 130.23     | 136.26     |  20.9 |  1.45
Comm    | 233.71     | 326.51     | 465.71     | 299.2 |  3.63
Output  | 0.012572   | 0.016502   | 0.028684   |   1.3 |  0.00
Modify  | 246.97     | 303.07     | 362.84     | 127.0 |  3.37
Other   |            | 96.28      |            |       |  1.07

Nlocal:    129.398 ave 236 max 99 min
Histogram: 23 96 47 32 14 2 0 1 0 1
Nghost:    955.366 ave 1134 max 812 min
Histogram: 7 16 34 31 42 34 27 18 5 2
Neighs:    4817.9 ave 13204 max 2922 min
Histogram: 62 74 48 19 11 0 0 1 0 1

Total # of neighbors = 1040666
Ave neighs/atom = 37.2331
Ave special neighs/atom = 0.62254
Neighbor list builds = 134449
Dangerous builds = 0
PPPM initialization ...
  using 12-bit tables for long-range coulomb (src/kspace.cpp:332)
  G vector (1/distance) = 1.14923
  grid = 90 90 90
  stencil order = 5
  estimated absolute RMS force accuracy = 0.00011112
  estimated relative force accuracy = 0.00011112
  using double precision FFTW3
  3d grid and FFT values/proc = 8000 3600
WARNING: Neighbor exclusions used with KSpace solver may give inconsistent Coulombic energies (src/neighbor.cpp:486)
Neighbor list info ...
  update every 1 steps, delay 0 steps, check yes
  max neighbors/atom: 2000, page size: 100000
  master list distance cutoff = 2.8
  ghost atom cutoff = 2.8
  binsize = 1.4, bins = 24 24 24
  12 neighbor lists, perpetual/occasional/extra = 2 10 0
  (1) pair lj/cut, perpetual
      attributes: half, newton on
      pair build: half/bin/newton
      stencil: half/bin/3d/newton
      bin: standard
  (2) pair coul/long, perpetual, skip from (1)
      attributes: half, newton on
      pair build: skip
      stencil: none
      bin: none
  (3) compute rdf, occasional, copy from (1)
      attributes: half, newton on
      pair build: copy
      stencil: none
      bin: none
  (4) compute rdf, occasional, copy from (1)
      attributes: half, newton on
      pair build: copy
      stencil: none
      bin: none
  (5) compute rdf, occasional, copy from (1)
      attributes: half, newton on
      pair build: copy
      stencil: none
      bin: none
  (6) compute rdf, occasional, copy from (1)
      attributes: half, newton on
      pair build: copy
      stencil: none
      bin: none
  (7) compute rdf, occasional, copy from (1)
      attributes: half, newton on
      pair build: copy
      stencil: none
      bin: none
  (8) compute rdf, occasional, copy from (1)
      attributes: half, newton on
      pair build: copy
      stencil: none
      bin: none
  (9) compute rdf, occasional, copy from (1)
      attributes: half, newton on
      pair build: copy
      stencil: none
      bin: none
  (10) compute rdf, occasional, copy from (1)
      attributes: half, newton on
      pair build: copy
      stencil: none
      bin: none
  (11) compute rdf, occasional, copy from (1)
      attributes: half, newton on
      pair build: copy
      stencil: none
      bin: none
  (12) compute rdf, occasional, copy from (1)
      attributes: half, newton on
      pair build: copy
      stencil: none
      bin: none
Setting up Verlet run ...
  Unit style    : lj
  Current step  : 0
  Time step     : 0.005
WARNING: One or more chunks do not contain all atoms in molecule (src/compute_chunk_atom.cpp:1163)
Per MPI rank memory allocation (min/avg/max) = 17.7 | 19.02 | 19.85 Mbytes
Step Temp Press PotEng KinEng E_pair E_bond TotEng 
       0   0.80084933  -0.66949319    1.1622498    1.1646985    -5.252444    6.4146938    2.3269483 
   10000   0.79918442  -0.13201144     1.155941    1.1622772   -5.2581588    6.4140997    2.3182182 
   20000   0.80005195  -0.22447948    1.1609383    1.1635389   -5.2558804    6.4168187    2.3244772 
   30000   0.80610408  -0.10659153     1.164281    1.1723407   -5.2510499    6.4153309    2.3366217 
   40000   0.79821989    -0.101886    1.1615272    1.1608745   -5.2555938     6.417121    2.3224017 
   50000   0.80548449   -0.1103446    1.1614215    1.1714396   -5.2502932    6.4117147    2.3328611 
   60000   0.80270004 -0.078585313    1.1595179    1.1673901   -5.2566009    6.4161188    2.3269079 
   70000   0.80460673 -0.091452933     1.160485     1.170163   -5.2528051    6.4132901    2.3306481 
   80000   0.79738543  -0.15562635    1.1621839    1.1596609   -5.2550531     6.417237    2.3218448 
   90000    0.7986848  -0.10768025    1.1710804    1.1615506   -5.2475031    6.4185835     2.332631 
  100000   0.80463713 -0.072448635     1.169658    1.1702072   -5.2469094    6.4165673    2.3398652 
  110000   0.80268016  -0.20275779    1.1534476    1.1673612    -5.261937    6.4153845    2.3208087 
  120000   0.80232033 -0.067234943    1.1639745    1.1668379   -5.2489146     6.412889    2.3308123 
  130000   0.80325098  -0.10396901     1.154934    1.1681913   -5.2576836    6.4126176    2.3231253 
  140000   0.80171233  -0.14608108    1.1572542    1.1659536   -5.2583357    6.4155898    2.3232078 
  150000   0.79772324  -0.16051904    1.1540991    1.1601522   -5.2606364    6.4147355    2.3142513 
  160000   0.80027417  -0.19041996     1.163546    1.1638621   -5.2507199    6.4142658    2.3274081 
  170000   0.79860709  -0.12459966    1.1557729    1.1614376   -5.2592106    6.4149834    2.3172104 
  180000    0.8025387  -0.13937824      1.17211    1.1671554   -5.2444874    6.4165974    2.3392654 
  190000   0.79986882  -0.20435462    1.1577096    1.1632725   -5.2587522    6.4164618    2.3209822 
  200000   0.80173864  -0.18418409    1.1617072    1.1659919   -5.2532008    6.4149081    2.3276991 
  210000   0.79859541  -0.18793876    1.1576534    1.1614206   -5.2560899    6.4137433     2.319074 
  220000   0.80121118  -0.13563885    1.1621706    1.1652248   -5.2535886    6.4157592    2.3273954 
  230000   0.80388077  -0.12787055    1.1555774    1.1691072     -5.26022    6.4157974    2.3246846 
  240000   0.79349012  -0.19773115     1.155225    1.1539958   -5.2575962    6.4128212    2.3092208 
  250000   0.80180586  -0.20398828    1.1534576    1.1660896   -5.2609408    6.4143984    2.3195472 
  260000   0.80480169  -0.13180513    1.1617868    1.1704466   -5.2518423    6.4136291    2.3322333 
  270000   0.79288831  -0.19714857    1.1530368    1.1531206   -5.2615178    6.4145547    2.3061574 
  280000   0.79857303  -0.21424646    1.1588323     1.161388   -5.2544265    6.4132587    2.3202203 
  290000   0.79583766  -0.11757084     1.168587    1.1574099   -5.2495206    6.4181075    2.3259969 
  300000   0.80190734  -0.19747371    1.1521899    1.1662372   -5.2606082    6.4127981    2.3184271 
  310000   0.80161213  -0.12864501    1.1637367    1.1658079    -5.249411    6.4131477    2.3295446 
  320000   0.79804362   -0.1857262    1.1575298    1.1606181   -5.2613301    6.4188599    2.3181479 
  330000   0.79909279  -0.13885697    1.1573909    1.1621439   -5.2547279    6.4121188    2.3195349 
  340000   0.79882241  -0.15470996     1.158701    1.1617507   -5.2573632    6.4160642    2.3204517 
  350000   0.80213191   -0.2166149    1.1609003    1.1665638   -5.2538463    6.4147466    2.3274641 
  360000   0.79789808  -0.18375624    1.1617818    1.1604064   -5.2504237    6.4122054    2.3221882 
  370000   0.80376836  -0.14825687    1.1574482    1.1689438   -5.2569734    6.4144216     2.326392 
  380000   0.79698244  -0.16101433    1.1553964    1.1590748   -5.2576131    6.4130095    2.3144712 
  390000   0.80151059  -0.10793231    1.1580408    1.1656602   -5.2559763    6.4140171     2.323701 
  400000   0.80220335  -0.13587684    1.1584267    1.1666677     -5.25933    6.4177567    2.3250944 
  410000   0.79996661  -0.12595369    1.1533763    1.1634148   -5.2611595    6.4145358    2.3167911 
  420000   0.79576064 -0.073959165    1.1628754    1.1572979   -5.2533985    6.4162739    2.3201733 
  430000   0.79454253  -0.24288869    1.1532488    1.1555264   -5.2620408    6.4152895    2.3087751 
  440000   0.79999868  -0.13098097    1.1517598    1.1634614   -5.2610785    6.4128383    2.3152212 
  450000   0.79604533  -0.17007949    1.1616842    1.1577119   -5.2543711    6.4160552    2.3193961 
  460000   0.80865029  -0.19501915    1.1524689    1.1760437   -5.2613549    6.4138238    2.3285126 
  470000   0.80323542  -0.12672118    1.1587882    1.1681687   -5.2547348     6.413523    2.3269569 
  480000   0.79737445  -0.15592512    1.1601284    1.1596449   -5.2570456     6.417174    2.3197733 
  490000   0.80563346  -0.11381562    1.1609609    1.1716562   -5.2562168    6.4171777    2.3326171 
  500000   0.79563815  -0.18063944    1.1562547    1.1571198    -5.259655    6.4159097    2.3133745 
  510000   0.79615857  -0.11615267    1.1577223    1.1578766   -5.2568054    6.4145277     2.315599 
  520000   0.79704579  -0.14266843    1.1689075    1.1591669   -5.2502981    6.4192056    2.3280745 
  530000   0.80461755  -0.18132834    1.1578005    1.1701788   -5.2571274    6.4149279    2.3279793 
  540000   0.80339877  -0.11161221    1.1518079    1.1684063   -5.2598136    6.4116215    2.3202141 
  550000   0.80255132  -0.12778523    1.1566863    1.1671738   -5.2595489    6.4162353    2.3238601 
  560000   0.80499943     -0.14272    1.1540797    1.1707341   -5.2571973    6.4112771    2.3248139 
  570000   0.80521778  -0.10324981      1.16837    1.1710517   -5.2472374    6.4156074    2.3394217 
  580000   0.80268337 -0.028065043    1.1640839    1.1673658    -5.249946    6.4140299    2.3314497 
  590000   0.79357669  -0.13582929    1.1635667    1.1541217   -5.2517589    6.4153255    2.3176884 
  600000   0.80201397  -0.10177605    1.1538789    1.1663923   -5.2603727    6.4142516    2.3202712 
  610000   0.80842686  -0.11158324    1.1633051    1.1757188   -5.2520171    6.4153222    2.3390239 
  620000   0.80254423  -0.15385274    1.1559474    1.1671635   -5.2574488    6.4133961    2.3231108 
  630000   0.79542271  -0.08219134    1.1684194    1.1568064   -5.2475345    6.4159539    2.3252259 
  640000       0.8002  -0.13727304    1.1538381    1.1637542   -5.2590001    6.4128382    2.3175923 
  650000   0.79846425  -0.13162602    1.1670733    1.1612298   -5.2486035    6.4156768    2.3283031 
  660000   0.79778359   -0.1474536    1.1552503    1.1602399   -5.2571894    6.4124397    2.3154902 
  670000   0.79832486 -0.072461419    1.1622597    1.1610271   -5.2523424    6.4146021    2.3232869 
  680000   0.80443846  -0.13530956    1.1620759    1.1699183   -5.2556202    6.4176961    2.3319943 
  690000   0.80627155  -0.12019427    1.1590474    1.1725842   -5.2577948    6.4168423    2.3316316 
  700000   0.79859339 -0.065192119    1.1533308    1.1614176   -5.2590969    6.4124276    2.3147484 
  710000   0.79957353  -0.17705162    1.1634209    1.1628431   -5.2479795    6.4114003     2.326264 
  720000   0.79722234  -0.13486005    1.1621206    1.1594237   -5.2523681    6.4144886    2.3215443 
  730000    0.8064585  -0.11806973    1.1581499    1.1728561   -5.2562868    6.4144367     2.331006 
  740000   0.81014567  -0.16383087    1.1553589    1.1782185   -5.2600978    6.4154567    2.3335774 
  750000   0.80603406  -0.10736937    1.1614142    1.1722388   -5.2553523    6.4167665     2.333653 
  760000   0.79855818  -0.13068888    1.1625288    1.1613664   -5.2516053    6.4141341    2.3238952 
  770000   0.79786173 -0.090450374    1.1650217    1.1603536   -5.2482505    6.4132722    2.3253753 
  780000   0.80180865 -0.096962339    1.1618652    1.1660937   -5.2549898    6.4168551    2.3279589 
  790000   0.81219532  -0.10885954    1.1598497    1.1811993   -5.2568855    6.4167353    2.3410491 
  800000   0.79911859  -0.12258818     1.160817    1.1621815    -5.252474    6.4132909    2.3229984 
  810000   0.79590666  -0.20318586    1.1579251    1.1575103   -5.2531156    6.4110407    2.3154354 
  820000   0.79728705  -0.10944355     1.161864    1.1595178   -5.2525053    6.4143693    2.3213818 
  830000   0.79864483  -0.16360878    1.1661015    1.1614925   -5.2498759    6.4159774     2.327594 
  840000   0.79096781  -0.12678085     1.164934    1.1503275   -5.2513311    6.4162651    2.3152615 
  850000   0.80667399  -0.14804143     1.157185    1.1731695   -5.2602651    6.4174501    2.3303545 
  860000   0.79877365  -0.22726256    1.1586744    1.1616798    -5.253323    6.4119974    2.3203542 
  870000   0.79772003  -0.16121386    1.1659458    1.1601475   -5.2514878    6.4174336    2.3260932 
  880000   0.79971049  -0.15417144    1.1506403    1.1630423   -5.2587211    6.4093614    2.3136826 
  890000   0.79899822  -0.13374019    1.1592092    1.1620064    -5.254535    6.4137441    2.3212156 
  900000   0.80515824  -0.17768833    1.1560183    1.1709651   -5.2594263    6.4154446    2.3269834 
  910000   0.79696312   -0.2039408    1.1647261    1.1590467   -5.2527557    6.4174818    2.3237728 
  920000   0.79844314  -0.13892262    1.1625698    1.1611991   -5.2518247    6.4143946     2.323769 
  930000    0.7966503 -0.088814472    1.1550972    1.1585918   -5.2586459    6.4137431     2.313689 
  940000   0.79596537  -0.21748385     1.147628    1.1575956   -5.2654179    6.4130459    2.3052236 
  950000   0.79686653  -0.14433569    1.1564372    1.1589062   -5.2584523    6.4148895    2.3153435 
  960000   0.80076769  -0.17654259     1.156617    1.1645798   -5.2589103    6.4155273    2.3211968 
  970000   0.79940957  -0.17822781    1.1570212    1.1626047   -5.2599883    6.4170095    2.3196258 
  980000   0.80365394  -0.14025443    1.1572327    1.1687774   -5.2575425    6.4147752      2.32601 
  990000   0.79589245 -0.091540136     1.161413    1.1574896    -5.255805    6.4172179    2.3189026 
 1000000   0.80028906  -0.14964108    1.1580811    1.1638837   -5.2574485    6.4155296    2.3219648 
 1010000   0.79609263  -0.12681845    1.1610735    1.1577807   -5.2514639    6.4125374    2.3188542 
 1020000   0.79724679   -0.1199937     1.155966    1.1594593   -5.2584762    6.4144422    2.3154253 
 1030000   0.80021798  -0.13838793    1.1576214    1.1637803   -5.2570462    6.4146676    2.3214017 
 1040000   0.80741402 -0.090797357    1.1637918    1.1742457    -5.251339    6.4151307    2.3380375 
 1050000   0.80381024  -0.15951698    1.1565388    1.1690047   -5.2592336    6.4157724    2.3255434 
 1060000   0.79727343  -0.16530643    1.1571013     1.159498   -5.2572366     6.414338    2.3165993 
 1070000   0.79975505  -0.19328879     1.155728    1.1631071   -5.2575873    6.4133152    2.3188351 
 1080000   0.80319485  -0.11073719    1.1499833    1.1681097   -5.2620117     6.411995     2.318093 
 1090000   0.79731702  -0.15451789    1.1547644    1.1595614   -5.2577369    6.4125013    2.3143258 
 1100000   0.80506225  -0.12937602     1.167569    1.1708255    -5.249582     6.417151    2.3383945 
 1110000   0.80006066  -0.14625167    1.1552982    1.1635515     -5.25531    6.4106082    2.3188497 
 1120000   0.80149918  -0.12764724    1.1552708    1.1656436   -5.2587785    6.4140494    2.3209145 
 1130000   0.79900298  -0.15210187    1.1518919    1.1620133   -5.2620332    6.4139252    2.3139052 
 1140000   0.80239756  -0.13423749    1.1587914    1.1669502   -5.2531022    6.4118937    2.3257416 
 1150000   0.80456285  -0.13540973    1.1547506    1.1700992   -5.2598621    6.4146127    2.3248498 
 1160000   0.80060892  -0.10986886    1.1578758    1.1643489   -5.2572256    6.4151014    2.3222247 
 1170000   0.80956713  -0.16990674    1.1500868    1.1773771   -5.2642031    6.4142899    2.3274639 
 1180000   0.79370157  -0.11065295    1.1582551    1.1543033   -5.2547844    6.4130394    2.3125584 
 1190000   0.79351604  -0.13104888    1.1572049    1.1540335   -5.2571606    6.4143655    2.3112384 
 1200000   0.80638615  -0.19663596    1.1659365    1.1727509   -5.2506447    6.4165812    2.3386874 
 1210000      0.80085  -0.11529669    1.1556268    1.1646995    -5.257606    6.4132328    2.3203263 
 1220000   0.79875883  -0.19217179    1.1537158    1.1616583   -5.2610251    6.4147409     2.315374 
 1230000   0.80028132  -0.14141623    1.1599422    1.1638725   -5.2563313    6.4162736    2.3238147 
 1240000   0.80043838  -0.13751919    1.1641186    1.1641009   -5.2526338    6.4167524    2.3282195 
 1250000   0.80901954  -0.13476832    1.1612461    1.1765807   -5.2533086    6.4145547    2.3378268 
 1260000   0.79575463   -0.2024094    1.1624376    1.1572892   -5.2557082    6.4181458    2.3197267 
 1270000   0.80590368 -0.091067644    1.1613033    1.1720492   -5.2549886    6.4162918    2.3333525 
 1280000   0.79354808  -0.12531017    1.1638851    1.1540801   -5.2516257    6.4155108    2.3179652 
 1290000   0.79938952 -0.028794994    1.1670271    1.1625755   -5.2494926    6.4165196    2.3296025 
 1300000   0.79094568  -0.18308419    1.1572652    1.1502954   -5.2590346    6.4162998    2.3075606 
 1310000   0.80641127  -0.11029091    1.1637625    1.1727874   -5.2475147    6.4112771    2.3365499 
 1320000   0.79837056  -0.18650317    1.1605944    1.1610936    -5.254759    6.4153534     2.321688 
 1330000   0.80100254 -0.085775014    1.1582861    1.1649213   -5.2532776    6.4115637    2.3232074 
 1340000   0.79600634  -0.17605878    1.1569035    1.1576552    -5.260515    6.4174185    2.3145587 
 1350000     0.802477   -0.1259226    1.1579626    1.1670657   -5.2550581    6.4130207    2.3250283 
 1360000   0.79622605  -0.13710249    1.1545365    1.1579748   -5.2599771    6.4145135    2.3125112 
 1370000   0.79382783  -0.13052493    1.1607041     1.154487   -5.2562035    6.4169077    2.3151911 
 1380000   0.80522849  -0.13154728    1.1548473    1.1710673   -5.2563404    6.4111877    2.3259145 
 1390000   0.80961983  -0.13135928    1.1625635    1.1774537   -5.2545371    6.4171005    2.3400172 
 1400000   0.79374966 -0.093535497    1.1564988    1.1543733   -5.2598993     6.416398     2.310872 
 1410000   0.80385268 -0.032094711    1.1690015    1.1690664   -5.2474293    6.4164308    2.3380679 
 1420000   0.80138696  -0.16043905    1.1547457    1.1654804   -5.2574123     6.412158    2.3202261 
 1430000   0.80124207  -0.10606174    1.1576638    1.1652697   -5.2567694    6.4144333    2.3229336 
 1440000   0.79155755  -0.12156008    1.1533362    1.1511852   -5.2592736    6.4126098    2.3045215 
 1450000   0.80009919  -0.19606198    1.1564447    1.1636076   -5.2598891    6.4163337    2.3200523 
 1460000    0.7931677  -0.15168951    1.1647057    1.1535269   -5.2517697    6.4164754    2.3182326 
 1470000   0.79933655  -0.14718465    1.1513783    1.1624985   -5.2619023    6.4132806    2.3138767 
 1480000   0.81003659  -0.19202983    1.1576396    1.1780598   -5.2561817    6.4138212    2.3356994 
 1490000   0.80010731  -0.14233053    1.1630904    1.1636194   -5.2514592    6.4145496    2.3267098 
 1500000   0.80581287  -0.14094346    1.1606989    1.1719172   -5.2582634    6.4189622     2.332616 
 1510000   0.80205928  -0.13779258    1.1620982    1.1664582   -5.2537331    6.4158313    2.3285563 
 1520000   0.80180815   -0.1745602    1.1592474     1.166093   -5.2556133    6.4148607    2.3253404 
 1530000   0.80008306  -0.14849354    1.1583514    1.1635841   -5.2558672    6.4142186    2.3219355 
 1540000   0.80121542   -0.1689552    1.1627796     1.165231   -5.2547939    6.4175736    2.3280106 
 1550000   0.79769825  -0.13547783     1.159677    1.1601158   -5.2557157    6.4153928    2.3197929 
 1560000   0.79659083  -0.14583012    1.1607626    1.1585053   -5.2555282    6.4162907    2.3192679 
 1570000   0.80412954 -0.063344712    1.1554021     1.169469   -5.2558616    6.4112638    2.3248712 
 1580000   0.79796309 -0.072459583     1.153438     1.160501   -5.2589335    6.4123715     2.313939 
 1590000   0.79612579  -0.17676302    1.1515736     1.157829   -5.2643113    6.4158849    2.3094025 
 1600000   0.80330984  -0.14577778    1.1619946    1.1682769   -5.2531082    6.4151028    2.3302715 
 1610000   0.79643693  -0.21696985    1.1534234    1.1582814   -5.2595106     6.412934    2.3117048 
 1620000   0.80410638   -0.1913521    1.1577185    1.1694354   -5.2582551    6.4159737    2.3271539 
 1630000   0.80412899 -0.067889213    1.1676355    1.1694682   -5.2463621    6.4139975    2.3371037 
 1640000   0.79479876   -0.1334019    1.1571537     1.155899    -5.255646    6.4127996    2.3130527 
 1650000   0.79899136  -0.14647758    1.1603649    1.1619964   -5.2537448    6.4141097    2.3223613 
 1660000   0.80387485  -0.18731202    1.1449996    1.1690986    -5.268063    6.4130625    2.3140982 
 1670000    0.8072584  -0.13559495    1.1519255    1.1740194   -5.2638253    6.4157508    2.3259449 
 1680000   0.80018023  -0.21534676    1.1505105    1.1637254   -5.2663258    6.4168364     2.314236 
 1690000   0.79595737  -0.24932531    1.1587389     1.157584    -5.256399    6.4151379    2.3163229 
 1700000   0.79574357  -0.19969427    1.1577187    1.1572731   -5.2566763     6.414395    2.3149918 
 1710000   0.80392419  -0.10798537    1.1608496    1.1691704   -5.2526226    6.4134722      2.33002 
 1720000   0.80513557 -0.063489977     1.161166    1.1709321   -5.2534534    6.4146194    2.3320981 
 1730000   0.80238288  -0.13856343    1.1538863    1.1669288   -5.2624298    6.4163161    2.3208151 
 1740000   0.80845675  -0.13355472    1.1579234    1.1757622    -5.257041    6.4149644    2.3336856 
 1750000   0.79754221  -0.17069307    1.1521292    1.1598889   -5.2612092    6.4133384    2.3120181 
 1760000   0.80161502  -0.24725561     1.146565    1.1658121   -5.2664116    6.4129766    2.3123771 
 1770000   0.79930332 -0.090819265    1.1553785    1.1624501   -5.2588415    6.4142201    2.3178287 
 1780000   0.80116933  -0.12947518    1.1549802    1.1651639   -5.2629392    6.4179194    2.3201441 
 1790000   0.80745225   -0.1086928    1.1634856    1.1743014   -5.2483501    6.4118357    2.3377869 
 1800000    0.7978409  -0.10444489    1.1593054    1.1603233   -5.2537957    6.4131012    2.3196287 
 1810000   0.79899673  -0.10751214    1.1541211    1.1620042   -5.2597466    6.4138677    2.3161253 
 1820000   0.80001909  -0.10229201    1.1594914    1.1634911   -5.2547318    6.4142233    2.3229825 
 1830000   0.80015555  -0.15446055    1.1472942    1.1636896   -5.2684511    6.4157453    2.3109838 
 1840000   0.79871619  -0.14910105    1.1599447    1.1615963     -5.25515    6.4150947     2.321541 
 1850000   0.79998859  -0.10391703    1.1650144    1.1634467   -5.2492642    6.4142785    2.3284611 
 1860000   0.79527305  -0.12173773      1.15599    1.1565888   -5.2616709    6.4176608    2.3125787 
 1870000   0.80491213  -0.17013411    1.1594116    1.1706072   -5.2542214     6.413633    2.3300188 
 1880000   0.79276509  -0.16104424    1.1582474    1.1529414   -5.2562123    6.4144597    2.3111888 
 1890000   0.79837166  -0.15930494    1.1513569    1.1610952   -5.2631767    6.4145336    2.3124521 
 1900000   0.79453498  -0.18508846    1.1532799    1.1555154   -5.2618057    6.4150856    2.3087953 
 1910000   0.80210896  -0.15713819    1.1601562    1.1665304   -5.2561418     6.416298    2.3266866 
 1920000   0.79828025  -0.18136804    1.1596935    1.1609622   -5.2589345     6.418628    2.3206557 
 1930000   0.80148972  -0.08600103    1.1706534    1.1656299     -5.24488    6.4155335    2.3362833 
 1940000    0.8066156  -0.11643966    1.1599669    1.1730846   -5.2539898    6.4139567    2.3330515 
 1950000   0.80272886 -0.058076297    1.1614051     1.167432   -5.2532966    6.4147017    2.3288371 
 1960000   0.79659817 -0.099631126    1.1530761    1.1585159   -5.2624769     6.415553     2.311592 
 1970000    0.8046195 -0.079571268    1.1694772    1.1701816   -5.2490119    6.4184891    2.3396588 
 1980000   0.80271985 -0.050840222    1.1650073    1.1674189   -5.2479317     6.412939    2.3324262 
 1990000   0.79780005 -0.081459912    1.1634925    1.1602639   -5.2538363    6.4173288    2.3237564 
 2000000   0.79739915  -0.15498606    1.1550636    1.1596808   -5.2596032    6.4146668    2.3147445 
 2010000   0.79331211  -0.12216616    1.1512502    1.1537369   -5.2666863    6.4179364    2.3049871 
 2020000   0.79419555  -0.24584731    1.1562903    1.1550218   -5.2596278     6.415918     2.311312 
 2030000   0.80439621 -0.053505082    1.1578812    1.1698569   -5.2580405    6.4159217    2.3277381 
 2040000   0.79851632  -0.11771204    1.1559851    1.1613056   -5.2593533    6.4153385    2.3172907 
 2050000    0.8050882  -0.12547545    1.1556199    1.1708633   -5.2550951     6.410715    2.3264832 
 2060000   0.80335244  -0.14437822    1.1522743    1.1683389   -5.2596631    6.4119374    2.3206132 
 2070000      0.78997  -0.14318066    1.1620912    1.1488764   -5.2555377    6.4176289    2.3109676 
 2080000   0.79798729 -0.088080463    1.1591354    1.1605362   -5.2558575    6.4149929    2.3196716 
 2090000   0.79992997 -0.090356354    1.1583983    1.1633615   -5.2553581    6.4137564    2.3217598 
 2100000   0.80678304  -0.13100843    1.1566872    1.1733281   -5.2584764    6.4151636    2.3300153 
 2110000    0.7963169 -0.098140214     1.163826    1.1581069   -5.2528871    6.4167131    2.3219329 
 2120000    0.8006827  -0.17351633     1.155303    1.1644562   -5.2600936    6.4153966    2.3197592 
 2130000    0.7985429  -0.15591554    1.1535495    1.1613442    -5.262705    6.4162544    2.3148937 
 2140000   0.79217698  -0.18123513    1.1512361    1.1520861   -5.2603034    6.4115395    2.3033222 
 2150000   0.80351898  -0.17343414    1.1509929    1.1685811   -5.2668917    6.4178845     2.319574 
 2160000    0.8000303 -0.077723209    1.1685734    1.1635074   -5.2463762    6.4149496    2.3320808 
 2170000   0.79921847   -0.1643279     1.158325    1.1623267    -5.256081     6.414406    2.3206517 
 2180000   0.79560346  -0.11088709    1.1613028    1.1570693   -5.2552128    6.4165157    2.3183722 
 2190000   0.79997879  -0.13749923    1.1508135    1.1634325   -5.2631041    6.4139176     2.314246 
 2200000   0.79748995  -0.18882002    1.1553545    1.1598129   -5.2610234    6.4163779    2.3151674 
 2210000   0.79758349  -0.12028269    1.1534607    1.1599489   -5.2633655    6.4168261    2.3134096 
 2220000   0.79651382  -0.17136411    1.1580804    1.1583933   -5.2550181    6.4130986    2.3164737 
 2230000   0.80059213 -0.092293413    1.1573096    1.1643245   -5.2592395    6.4165491    2.3216341 
 2240000   0.79934744  -0.15514959    1.1632241    1.1625143   -5.2529971    6.4162212    2.3257384 
 2250000   0.79935114 -0.088161309     1.157636    1.1625197   -5.2592676    6.4169036    2.3201557 
 2260000   0.79657445  -0.26368463    1.1459637    1.1584814   -5.2689897    6.4149535    2.3044452 
 2270000   0.79500317  -0.14051845    1.1515896    1.1561963   -5.2616714     6.413261    2.3077859 
 2280000    0.7998421 -0.097087975    1.1564763    1.1632337   -5.2572165    6.4136928    2.3197099 
 2290000    0.8063858  -0.13135145     1.158936    1.1727504   -5.2556735    6.4146095    2.3316864 
 2300000   0.79759489  -0.18667465    1.1602354    1.1599655   -5.2530792    6.4133146    2.3202009 
 2310000   0.80362908  -0.14063995    1.1613947    1.1687412   -5.2526102    6.4140048    2.3301359 
 2320000   0.79825174  -0.16915106    1.1533449    1.1609208   -5.2631202     6.416465    2.3142657 
 2330000   0.79830485  -0.15156573    1.1573301     1.160998   -5.2581356    6.4154657    2.3183281 
 2340000   0.80570279  -0.17672457    1.1549129    1.1717571   -5.2590429    6.4139557    2.3266699 
 2350000   0.80543847  -0.11755424    1.1578951    1.1713727   -5.2592495    6.4171446    2.3292677 
 2360000   0.79997721  -0.09665238    1.1624148    1.1634302   -5.2520803    6.4144951    2.3258449 
 2370000   0.79851772  -0.15355446    1.1551555    1.1613076   -5.2588281    6.4139836    2.3164631 
 2380000   0.80545466 -0.066378393    1.1605391    1.1713962   -5.2544126    6.4149517    2.3319353 
 2390000   0.79498781 -0.088971309    1.1570698     1.156174   -5.2597482     6.416818    2.3132437 
 2400000   0.80184314 -0.095998005    1.1656308    1.1661439   -5.2533037    6.4189346    2.3317747 
 2410000   0.79972338  -0.12639456    1.1591507     1.163061   -5.2569461    6.4160968    2.3222118 
 2420000   0.79417772  -0.09206634    1.1610724    1.1549958   -5.2539356     6.415008    2.3160682 
 2430000   0.79826152   -0.1201001    1.1561067     1.160935   -5.2600864    6.4161931    2.3170417 
 2440000   0.80144087  -0.12449546    1.1590657    1.1655588    -5.255597    6.4146627    2.3246245 
 2450000    0.7986712  -0.11329449    1.1558837    1.1615308   -5.2565072    6.4123909    2.3174145 
 2460000   0.80042019  -0.14906653    1.1522723    1.1640744   -5.2627392    6.4150115    2.3163467 
 2470000   0.79848544  -0.14028599    1.1553365    1.1612607   -5.2619784    6.4173149    2.3165972 
 2480000   0.79503542  -0.17852526    1.1573445    1.1562432   -5.2583794     6.415724    2.3135877 
 2490000   0.79992135   -0.1010651    1.1574426    1.1633489   -5.2594229    6.4168655    2.3207915 
 2500000   0.79595725  -0.20688129    1.1529975    1.1575838   -5.2642156    6.4172131    2.3105813 
 2510000   0.79583682  -0.14706785    1.1544496    1.1574087   -5.2593483    6.4137979    2.3118583 
 2520000   0.79958376    -0.142123     1.150455     1.162858   -5.2640684    6.4145234     2.313313 
 2530000    0.7987576 -0.079868897     1.162935    1.1616565   -5.2523359    6.4152709    2.3245915 
 2540000   0.80709297 -0.090849184    1.1671362    1.1737788   -5.2523672    6.4195034    2.3409151 
 2550000    0.8023707  -0.16856927    1.1569041    1.1669111   -5.2581675    6.4150716    2.3238152 
 2560000   0.80380557  -0.10884113    1.1619025    1.1689979   -5.2562884    6.4181909    2.3309004 
 2570000   0.80045852  -0.14331081    1.1550235    1.1641302   -5.2596522    6.4146756    2.3191536 
 2580000   0.79317619  -0.13523758    1.1617169    1.1535393   -5.2549154    6.4166323    2.3152562 
 2590000   0.79856963  -0.13912185    1.1476183    1.1613831   -5.2643297     6.411948    2.3090014 
 2600000   0.79471501 -0.044600593    1.1590653    1.1557772   -5.2557318    6.4147971    2.3148425 
 2610000   0.79918598  -0.18577388     1.146198    1.1622795   -5.2670652    6.4132632    2.3084774 
 2620000   0.80036737  -0.12120756    1.1692532    1.1639976   -5.2469615    6.4162146    2.3332508 
 2630000   0.79774451  -0.14679424    1.1501174    1.1601831   -5.2649957    6.4151131    2.3103005 
 2640000   0.79918458  -0.12531564    1.1554436    1.1622774   -5.2605091    6.4159527    2.3177211 
 2650000   0.79182168  -0.11289324    1.1533047    1.1515694   -5.2599556    6.4132603    2.3048741 
 2660000   0.80327797  -0.14092624    1.1524124    1.1682306    -5.263533    6.4159453    2.3206429 
 2670000   0.81094744  -0.19927884    1.1476021    1.1793845   -5.2662795    6.4138816    2.3269866 
 2680000   0.79955709 -0.095805038    1.1615757    1.1628192   -5.2539143      6.41549    2.3243949 
 2690000   0.80044177  -0.10696428    1.1612393    1.1641058   -5.2504556    6.4116948    2.3253451 
 2700000   0.80147906  -0.17962582    1.1533156    1.1656144   -5.2625469    6.4158626      2.31893 
 2710000   0.79267591 -0.092831177    1.1661176    1.1528117   -5.2487193    6.4148369    2.3189293 
 2720000   0.80510724  -0.10489058    1.1588419    1.1708909   -5.2540957    6.4129376    2.3297329 
 2730000   0.79692519 -0.097835105    1.1676483    1.1589915   -5.2505156    6.4181639    2.3266398 
 2740000   0.80039078  -0.11088603    1.1668588    1.1640316   -5.2504098    6.4172685    2.3308904 
 2750000   0.80687542  -0.18174717    1.1596986    1.1734624   -5.2568918    6.4165904    2.3331611 
 2760000   0.80599175  -0.14255257    1.1522444    1.1721773   -5.2587802    6.4110247    2.3244217 
 2770000   0.79551738  -0.16957359    1.1595098    1.1569441   -5.2566423    6.4161521     2.316454 
 2780000   0.80159635 -0.082597223    1.1519669    1.1657849   -5.2614205    6.4133874    2.3177519 
 2790000   0.79403443  -0.18957069    1.1552629    1.1547874   -5.2599799    6.4152428    2.3100503 
 2800000   0.79361812  -0.15676167    1.1584981     1.154182   -5.2538399     6.412338    2.3126801 
 2810000   0.79153316  -0.10184706    1.1563589    1.1511498   -5.2583221     6.414681    2.3075087 
 2820000   0.79629011  -0.12457149    1.1571742    1.1580679   -5.2571551    6.4143293    2.3152421 
 2830000   0.79725348  -0.11001041    1.1548398     1.159469   -5.2590588    6.4138986    2.3143088 
 2840000   0.79639024  -0.13836357    1.1571019    1.1582135   -5.2631003    6.4202022    2.3153155 
 2850000   0.79642056   -0.1302961     1.161451    1.1582576   -5.2527613    6.4142123    2.3197087 
 2860000   0.79500571 -0.093118063    1.1531809       1.1562   -5.2608378    6.4140187    2.3093809 
 2870000   0.79412024  -0.20446307    1.1543268    1.1549122   -5.2626761    6.4170029     2.309239 
 2880000   0.79819386  -0.11787954    1.1558285    1.1608366   -5.2567605     6.412589    2.3166651 
 2890000   0.80060076  -0.15113093    1.1547731     1.164337   -5.2585595    6.4133326    2.3191101 
 2900000   0.80463285  -0.12118555    1.1548541     1.170201    -5.256677    6.4115311    2.3250551 
 2910000   0.80022948  -0.14901863    1.1617992    1.1637971   -5.2563827    6.4181819    2.3255963 
 2920000   0.80510819  -0.12022489    1.1547363    1.1708923   -5.2607277     6.415464    2.3256286 
 2930000    0.7973111  -0.14113768    1.1606282    1.1595528   -5.2560965    6.4167247     2.320181 
 2940000   0.80408584   -0.1194138    1.1621163    1.1694055   -5.2563677     6.418484    2.3315218 
 2950000   0.80190843  -0.17371596    1.1582063    1.1662388   -5.2558243    6.4140306    2.3244452 
 2960000   0.79911903  -0.15482111    1.1548083    1.1621821   -5.2598904    6.4146987    2.3169904 
 2970000   0.79548758  -0.16910652    1.1511587    1.1569008   -5.2615186    6.4126774    2.3080595 
 2980000   0.80013095 -0.099948834    1.1513224    1.1636538   -5.2629538    6.4142761    2.3149761 
 2990000   0.79486836  -0.18947426    1.1578689    1.1560002   -5.2567544    6.4146233    2.3138691 
 3000000   0.80369037  -0.16604346    1.1558075    1.1688303   -5.2546053    6.4104128    2.3246379 
 3010000   0.80485879  -0.15267113    1.1506738    1.1705296    -5.263768    6.4144418    2.3212034 
 3020000   0.79126695  -0.15698298    1.1548014    1.1507626   -5.2583399    6.4131413     2.305564 
 3030000   0.80397121  -0.15191003      1.15559    1.1692388   -5.2604693    6.4160593    2.3248288 
 3040000   0.79857717  -0.13560678    1.1582851    1.1613941    -5.254307    6.4125921    2.3196792 
 3050000    0.8036338  -0.12859122    1.1547492    1.1687481   -5.2601605    6.4149097    2.3234973 
 3060000   0.79657941  -0.19730197    1.1478045    1.1584887   -5.2683809    6.4161854    2.3062932 
 3070000   0.79948858   -0.1632278    1.1573482    1.1627196    -5.258345    6.4156932    2.3200678 
 3080000   0.79134627  -0.14254771    1.1553112     1.150878   -5.2583161    6.4136273    2.3061892 
 3090000   0.80227125  -0.14662894    1.1541477    1.1667665    -5.262499    6.4166467    2.3209141 
 3100000   0.80137674   -0.1054552    1.1590148    1.1654656   -5.2559776    6.4149924    2.3244804 
 3110000   0.80463093   -0.1331369    1.1523956    1.1701982   -5.2589992    6.4113948    2.3225938 
 3120000   0.79736777  -0.13667952    1.1512483    1.1596352   -5.2659165    6.4171648    2.3108835 
 3130000   0.80226231  -0.14996226    1.1537365    1.1667535   -5.2633795    6.4171161      2.32049 
 3140000   0.80431434  -0.10885467    1.1555734    1.1697378   -5.2633684    6.4189418    2.3253112 
 3150000    0.8004346   -0.1707195    1.1501567    1.1640954   -5.2644046    6.4145613    2.3142521 
 3160000    0.7977764 -0.075572534    1.1665641    1.1602295     -5.25328    6.4198441    2.3267936 
 3170000     0.797564  -0.15716724    1.1504361    1.1599206   -5.2627421    6.4131781    2.3103566 
 3180000   0.80389985  -0.10132293    1.1508561     1.169135   -5.2594439       6.4103    2.3199911 
 3190000   0.80673429  -0.12635289    1.1615761    1.1732572   -5.2537234    6.4152995    2.3348333 
 3200000   0.80070701    -0.158337    1.1521772    1.1644916   -5.2639356    6.4161128    2.3166687 
 3210000   0.80771138  -0.11842018    1.1515216    1.1746782   -5.2639959    6.4155176    2.3261999 
 3220000   0.80217287  -0.15047234    1.1603132    1.1666234   -5.2533961    6.4137094    2.3269366 
 3230000   0.80135924  -0.09926678    1.1565994    1.1654401   -5.2587768    6.4153762    2.3220395 
 3240000   0.79586275  -0.17652743    1.1538819    1.1574464    -5.258436    6.4123179    2.3113283 
 3250000   0.79461276  -0.17553397    1.1531335    1.1556285   -5.2623767    6.4155102     2.308762 
 3260000   0.80508396  -0.13761005    1.1649055    1.1708571   -5.2525793    6.4174848    2.3357625 
 3270000   0.79619404  -0.11102026    1.1610661    1.1579282   -5.2563159     6.417382    2.3189943 
 3280000   0.79921734  -0.08305033    1.1607752    1.1623251   -5.2551936    6.4159689    2.3231003 
 3290000   0.79775491  -0.13462573     1.154622    1.1601982   -5.2609505    6.4155726    2.3148203 
 3300000     0.807796  -0.10303523    1.1493474    1.1748013   -5.2651383    6.4144857    2.3241486 
 3310000   0.79214897  -0.09692298     1.159794    1.1520453   -5.2549151    6.4147091    2.3118394 
 3320000   0.80216837  -0.13878248    1.1538185    1.1666168    -5.258561    6.4123795    2.3204353 
 3330000   0.79800652  -0.14092453     1.157608    1.1605642   -5.2573583    6.4149663    2.3181721 
 3340000   0.79586314  -0.11288278    1.1546834     1.157447   -5.2608246     6.415508    2.3121304 
 3350000   0.80123814   -0.1810084    1.1612242     1.165264    -5.257583    6.4188072    2.3264882 
 3360000   0.79892596  -0.11644291    1.1525106    1.1619013    -5.265109    6.4176197     2.314412 
 3370000   0.80068338  -0.12706978    1.1591139    1.1644572   -5.2557112    6.4148251    2.3235711 
 3380000   0.79507107  -0.06346137    1.1560113     1.156295   -5.2580823    6.4140936    2.3123063 
 3390000   0.79780154  -0.16438835    1.1497856     1.160266    -5.265583    6.4153686    2.3100516 
 3400000   0.79763798  -0.11561542    1.1478303    1.1600282   -5.2652195    6.4130498    2.3078584 
 3410000   0.79958814 -0.094846808    1.1593481    1.1628643   -5.2550572    6.4144053    2.3222124 
 3420000    0.8013531   -0.1936471    1.1521795    1.1654312   -5.2637964     6.415976    2.3176107 
 3430000   0.80082419  -0.18721715    1.1523222     1.164662   -5.2620431    6.4143654    2.3169842 
 3440000   0.80036994   -0.1929401    1.1564371    1.1640013   -5.2574902    6.4139273    2.3204385 
 3450000   0.80084646  -0.12780672    1.1512075    1.1646944   -5.2655422    6.4167497    2.3159018 
 3460000   0.79927362  -0.14086018    1.1510946    1.1624069   -5.2620153    6.4131099    2.3135015 
 3470000   0.80086096  -0.17781983    1.1587852    1.1647155   -5.2570468     6.415832    2.3235007 
 3480000   0.80382941  -0.14156454    1.1572047    1.1690326     -5.25757    6.4147747    2.3262372 
 3490000   0.79017405  -0.15277131    1.1516736    1.1491732   -5.2651914     6.416865    2.3008468 
 3500000   0.80852912   -0.1124302    1.1578974    1.1758675   -5.2561753    6.4140727    2.3337649 
 3510000   0.79932916  -0.16342453    1.1529719    1.1624877   -5.2650211    6.4179931    2.3154596 
 3520000   0.80738464 -0.080547386    1.1601813     1.174203   -5.2527832    6.4129645    2.3343843 
 3530000   0.79385971  -0.16293323    1.1507465    1.1545333   -5.2638004    6.4145469    2.3052798 
 3540000   0.79944544  -0.12722831    1.1587816    1.1626568   -5.2565456    6.4153272    2.3214384 
 3550000   0.80064981  -0.14505684    1.1541683    1.1644084   -5.2587178     6.412886    2.3185766 
 3560000   0.80215827  -0.10704414    1.1706653    1.1666022   -5.2467646    6.4174299    2.3372675 
 3570000   0.80192764   -0.1509743    1.1541558    1.1662668   -5.2595034    6.4136591    2.3204226 
 3580000   0.79987444  -0.16212378    1.1620814    1.1632807    -5.253073    6.4151543    2.3253621 
 3590000   0.80612451  -0.13285461    1.1494723    1.1723704   -5.2637343    6.4132066    2.3218427 
 3600000   0.80075293  -0.15345241    1.1535997    1.1645583    -5.257041    6.4106406     2.318158 
 3610000   0.80469693 -0.098192151    1.1561037    1.1702942   -5.2573781    6.4134818    2.3263979 
 3620000   0.80473368   -0.1720968    1.1556749    1.1703476   -5.2604524    6.4161274    2.3260226 
 3630000   0.80120465  -0.15159364    1.1538487    1.1652153   -5.2588122    6.4126609     2.319064 
 3640000   0.80134024  -0.18231152    1.1570174    1.1654125   -5.2584916     6.415509    2.3224299 
 3650000   0.80042461  -0.14129719    1.1492606    1.1640808    -5.267351    6.4166116    2.3133414 
 3660000   0.79907958   -0.1464574    1.1564026    1.1621247     -5.25881    6.4152126    2.3185273 
 3670000   0.80348138  -0.15379178    1.1566115    1.1685264   -5.2550103    6.4116218    2.3251379 
 3680000    0.8019712  -0.17433834    1.1535316    1.1663301   -5.2602576    6.4137891    2.3198617 
 3690000   0.80277245  -0.16373812    1.1521016    1.1674954   -5.2635465    6.4156481     2.319597 
 3700000   0.80165537  -0.18540198    1.1521648    1.1658708    -5.264224    6.4163888    2.3180355 
 3710000   0.79837125  -0.12885634    1.1542083    1.1610946   -5.2630465    6.4172548    2.3153029 
 3720000   0.80073163  -0.10886872    1.1566935    1.1645274   -5.2598433    6.4165368    2.3212209 
 3730000   0.79784736  -0.16233151    1.1560771    1.1603327   -5.2599327    6.4160098    2.3164097 
 3740000   0.79235799  -0.12981841    1.1535307    1.1523493   -5.2608003     6.414331      2.30588 
 3750000   0.79406682  -0.14918111    1.1539084    1.1548345   -5.2643458    6.4182542     2.308743 
 3760000    0.8014141  -0.11552114    1.1502421    1.1655199   -5.2635092    6.4137513     2.315762 
 3770000   0.79919479 -0.056405688    1.1478205    1.1622923   -5.2660636     6.413884    2.3101128 
 3780000   0.80069227  -0.16958802    1.1521862    1.1644701   -5.2628638      6.41505    2.3166563 
 3790000   0.80160266 -0.069473624    1.1491473    1.1657941   -5.2674041    6.4165514    2.3149414 
 3800000   0.80023762 -0.084226835    1.1527494    1.1638089   -5.2625219    6.4152713    2.3165583 
 3810000   0.80295649  -0.17090538    1.1540498     1.167763   -5.2597183    6.4137682    2.3218129 
 3820000   0.80025875  -0.14026062    1.1531749    1.1638396   -5.2619606    6.4151355    2.3170146 
 3830000    0.7979934   -0.1445159    1.1575364    1.1605451   -5.2574149    6.4149514    2.3180815 
 3840000   0.79859604  -0.18252664    1.1538694    1.1614215   -5.2635239    6.4173933    2.3152909 
 3850000   0.81161545    -0.111815    1.1542346     1.180356   -5.2633142    6.4175488    2.3345906 
 3860000   0.80703894  -0.14708635    1.1569419    1.1737003   -5.2604175    6.4173594    2.3306421 
 3870000   0.80106595  -0.13977167    1.1546894    1.1650136   -5.2636154    6.4183047     2.319703 
 3880000   0.79433082  -0.17853608     1.145989    1.1552185    -5.268565     6.414554    2.3012075 
 3890000   0.80238837  -0.10453078     1.154583    1.1669368    -5.258601    6.4131839    2.3215198 
 3900000   0.79986921  -0.10137652    1.1576126    1.1632731   -5.2556374      6.41325    2.3208857 
 3910000   0.79943812  -0.15178236    1.1465489    1.1626462   -5.2647455    6.4112944    2.3091951 
 3920000   0.80000906  -0.17498303    1.1556163    1.1634765   -5.2578886    6.4135049    2.3190928 
 3930000   0.80051538 -0.094086966    1.1543175    1.1642129   -5.2624269    6.4167443    2.3185303 
 3940000    0.8035675 -0.099238657    1.1533463    1.1686517   -5.2595683    6.4129146     2.321998 
 3950000   0.79304638  -0.11787474    1.1508489    1.1533505   -5.2636808    6.4145297    2.3041994 
 3960000   0.80846718  -0.13531892    1.1607093    1.1757774   -5.2545095    6.4152188    2.3364867 
 3970000   0.79944235   -0.1652323     1.144993    1.1626523   -5.2659289    6.4109219    2.3076453 
 3980000   0.80159856  -0.10829001    1.1564849    1.1657882    -5.260282    6.4167669    2.3222731 
 3990000     0.801746  -0.14577477    1.1571157    1.1660026   -5.2573515    6.4144671    2.3231183 
 4000000   0.80636242  -0.15997591    1.1460004    1.1727164   -5.2671409    6.4131413    2.3187168 
 4010000   0.80527269  -0.14511037    1.1526481    1.1711316   -5.2620265    6.4146746    2.3237797 
 4020000   0.79553209  -0.17899195    1.1418831    1.1569655   -5.2725664    6.4144495    2.2988487 
 4030000   0.79631436   -0.1658889    1.1558517    1.1581032   -5.2555862    6.4114379    2.3139549 
 4040000   0.79935301  -0.11042211    1.1587619    1.1625224   -5.2585066    6.4172685    2.3212843 
 4050000   0.79780991  -0.17731686     1.147633    1.1602782   -5.2662788    6.4139118    2.3079112 
 4060000   0.79803339  -0.12297019    1.1553185    1.1606032   -5.2599824    6.4153009    2.3159217 
 4070000    0.7897626  -0.20742296    1.1561991    1.1485748   -5.2605135    6.4167125    2.3047739 
 4080000   0.79879331  -0.16079469    1.1517834    1.1617084   -5.2591039    6.4108873    2.3134918 
 4090000   0.79610212  -0.10653039    1.1564212    1.1577945   -5.2604756    6.4168968    2.3142157 
 4100000   0.79717583  -0.12517517    1.1613996    1.1593561   -5.2542176    6.4156172    2.3207557 
 4110000   0.80466145  -0.13502419    1.1551246    1.1702426   -5.2604403    6.4155649    2.3253672 
 4120000   0.79725111  -0.14190994    1.1544612    1.1594655   -5.2583209    6.4127821    2.3139267 
 4130000   0.80626714  -0.12707556     1.154084    1.1725778    -5.261694     6.415778    2.3266618 
 4140000   0.80601207   -0.1945422    1.1562791    1.1722069   -5.2620846    6.4183638     2.328486 
 4150000    0.8088205  -0.11005561    1.1530719    1.1762912   -5.2579233    6.4109952    2.3293632 
 4160000   0.80277459  -0.12833124    1.1522179    1.1674985   -5.2623559    6.4145738    2.3197164 
 4170000   0.80446516  -0.13374527    1.1559766    1.1699571   -5.2596592    6.4156358    2.3259337 
 4180000   0.79859283  -0.15366393    1.1526239    1.1614168   -5.2607574    6.4133813    2.3140407 
 4190000   0.80361963   -0.1403653    1.1532753    1.1687275   -5.2638288    6.4171041    2.3220028 
 4200000   0.79540555 -0.083422383    1.1569307    1.1567815   -5.2548496    6.4117803    2.3137122 
 4210000   0.80225067  -0.17219265    1.1550756    1.1667365   -5.2600832    6.4151588    2.3218121 
 4220000   0.80051637  -0.13944269     1.164967    1.1642143   -5.2518476    6.4168146    2.3291813 
 4230000   0.79697114  -0.11640818    1.1515584    1.1590584    -5.259979    6.4115374    2.3106168 
 4240000   0.80451429  -0.11067243    1.1527422    1.1700286   -5.2588328     6.411575    2.3227708 
 4250000   0.80449529  -0.12305185    1.1458711     1.170001   -5.2648613    6.4107324    2.3158721 
 4260000   0.80398139  -0.10913902    1.1532229    1.1692536   -5.2589352    6.4121581    2.3224764 
 4270000   0.80384527 -0.093432464    1.1608452    1.1690556   -5.2555426    6.4163878    2.3299008 
 4280000   0.80336579  -0.18060726    1.1544196    1.1683583   -5.2611259    6.4155455    2.3227779 
 4290000   0.80002072  -0.14250474    1.1549737    1.1634935   -5.2598096    6.4147833    2.3184672 
 4300000    0.8050508   -0.1324056    1.1528055    1.1708089   -5.2610059    6.4138114    2.3236143 
 4310000   0.80248695  -0.23666046    1.1499543    1.1670802   -5.2651789    6.4151333    2.3170345 
 4320000   0.80218857  -0.10604085    1.1634748    1.1666462   -5.2508446    6.4143194     2.330121 
 4330000   0.80356876  -0.13914102    1.1456951    1.1686535   -5.2702034    6.4158985    2.3143485 
 4340000    0.8003203 -0.095342741    1.1524627    1.1639291   -5.2596924    6.4121551    2.3163918 
 4350000   0.79594282  -0.12043916    1.1615515    1.1575629   -5.2540035    6.4155551    2.3191144 
 4360000   0.79637958  -0.10081163    1.1573788     1.158198    -5.257041    6.4144199    2.3155769 
 4370000   0.79443778   -0.1887809    1.1486067     1.155374   -5.2645611    6.4131678    2.3039807 
 4380000   0.80104034  -0.11447592    1.1497622    1.1649763   -5.2654167    6.4151789    2.3147385 
 4390000   0.79523614 -0.085246334    1.1589257    1.1565351   -5.2573587    6.4162844    2.3154608 
 4400000   0.79933437  -0.15557093    1.1490515    1.1624953   -5.2672691    6.4163206    2.3115468 
 4410000   0.80331915  -0.15593115    1.1557388    1.1682905   -5.2603357    6.4160746    2.3240293 
 4420000   0.79870328  -0.18034241    1.1549392    1.1615775   -5.2622804    6.4172196    2.3165167 
 4430000   0.79856215  -0.11552288    1.1475359    1.1613722   -5.2695668    6.4171027    2.3089081 
 4440000   0.79688915  -0.15629389    1.1576023    1.1589391   -5.2583056    6.4159079    2.3165414 
 4450000   0.80119779 -0.096140872    1.1503218    1.1652053   -5.2634497    6.4137715    2.3155271 
 4460000   0.79961932  -0.15867429    1.1535977    1.1629097    -5.261875    6.4154727    2.3165074 
 4470000   0.79521136 -0.056870291    1.1590339    1.1564991   -5.2564472    6.4154811    2.3155329 
 4480000   0.79561573 -0.097586397    1.1530233    1.1570871   -5.2648673    6.4178907    2.3101105 
 4490000   0.81327695 -0.089024421    1.1565627    1.1827724   -5.2577996    6.4143624    2.3393351 
 4500000   0.80056982  -0.13731984    1.1561543     1.164292   -5.2621121    6.4182664    2.3204464 
 4510000   0.79910476  -0.10255203    1.1512934    1.1621614    -5.264012    6.4153054    2.3134548 
 4520000   0.80343235  -0.17314657    1.1552996    1.1684551   -5.2632574    6.4185571    2.3237547 
 4530000   0.80136048   -0.1669593    1.1604531    1.1654419   -5.2520439     6.412497     2.325895 
 4540000   0.80091455   -0.1379863    1.1543557    1.1647934   -5.2606814    6.4150371    2.3191491 
 4550000   0.80253083  -0.15265996    1.1523939     1.167144   -5.2637694    6.4161633    2.3195379 
 4560000   0.79921136  -0.14289299    1.1565599    1.1623164   -5.2580471     6.414607    2.3188762 
 4570000    0.7957944  -0.12283433    1.1469712     1.157347   -5.2687415    6.4157127    2.3043182 
 4580000   0.79958796  -0.25492545     1.145725    1.1628641   -5.2701762    6.4159012    2.3085891 
 4590000   0.80070075 -0.091591901    1.1600521    1.1644825   -5.2557491    6.4158012    2.3245346 
 4600000   0.80059846  -0.10681857    1.1566849    1.1643337   -5.2608903    6.4175752    2.3210186 
 4610000   0.80396558  -0.14055665    1.1481986    1.1692306   -5.2668282    6.4150268    2.3174292 
 4620000   0.80356411  -0.11066263    1.1531483    1.1686467   -5.2591363    6.4122845     2.321795 
 4630000   0.80004199 -0.097406064    1.1548972    1.1635244    -5.262746    6.4176432    2.3184216 
 4640000   0.80105353  -0.12553606    1.1401768    1.1649955    -5.272227    6.4124038    2.3051724 
 4650000   0.80208321  -0.18618694    1.1449375     1.166493   -5.2684223    6.4133597    2.3114305 
 4660000   0.80466276  -0.13760129    1.1577689    1.1702445    -5.256076    6.4138449    2.3280134 
 4670000    0.8005577 -0.096199317    1.1587109    1.1642744   -5.2543441    6.4130551    2.3229853 
 4680000   0.78580067  -0.10669211    1.1568734    1.1428128    -5.257138    6.4140115    2.2996862 
 4690000   0.79862737  -0.11807642     1.152053    1.1614671   -5.2647177    6.4167707    2.3135201 
 4700000   0.79684705  -0.14046305    1.1461683    1.1588779   -5.2680896    6.4142579    2.3050462 
 4710000   0.79551737  -0.17181994     1.152555    1.1569441   -5.2616221    6.4141771    2.3094991 
 4720000   0.79933538  -0.16421574    1.1566529    1.1624968   -5.2584117    6.4150646    2.3191497 
 4730000   0.79600242  -0.21097021    1.1461514    1.1576495    -5.270367    6.4165184     2.303801 
 4740000    0.8010719   -0.1358423    1.1531998    1.1650222   -5.2638179    6.4170177     2.318222 
 4750000   0.80512117  -0.19623942    1.1422502    1.1709112   -5.2716836    6.4139337    2.3131613 
 4760000   0.80200566  -0.07120585    1.1561898    1.1663802   -5.2613167    6.4175065      2.32257 
 4770000   0.80787623  -0.11132751    1.1534665     1.174918   -5.2631824     6.416649    2.3283845 
 4780000   0.79795444  -0.10332997    1.1508787    1.1604884   -5.2642963     6.415175    2.3113671 
 4790000   0.79671222  -0.10401028    1.1504226    1.1586818   -5.2660287    6.4164513    2.3091044 
 4800000   0.79217177  -0.11504289    1.1571645    1.1520785   -5.2579082    6.4150727     2.309243 
 4810000   0.80056023  -0.14562093    1.1552744    1.1642781   -5.2583387    6.4136131    2.3195525 
 4820000   0.80389913  -0.13983146    1.1566598    1.1691339   -5.2595257    6.4161855    2.3257937 
 4830000   0.80044994  -0.12320741    1.1560719    1.1641177    -5.261057    6.4171289    2.3201896 
 4840000   0.79545886   -0.1270097    1.1553497     1.156859   -5.2612468    6.4165965    2.3122087 
 4850000   0.80095753  -0.12049594    1.1567991    1.1648559   -5.2591965    6.4159955     2.321655 
 4860000   0.80700656  -0.12731958    1.1537695    1.1736532   -5.2627763    6.4165458    2.3274227 
 4870000   0.79952036   -0.1734378    1.1446071    1.1627658    -5.270499    6.4151061    2.3073729 
 4880000   0.79830256   -0.1197473    1.1595795    1.1609947   -5.2579361    6.4175156    2.3205742 
 4890000   0.79463737  -0.13158507    1.1535393    1.1556643   -5.2631241    6.4166634    2.3092036 
 4900000   0.80097703  -0.11132715    1.1614631    1.1648842   -5.2531812    6.4146443    2.3263473 
 4910000   0.79845536  -0.13408557    1.1464284    1.1612169   -5.2655953    6.4120237    2.3076453 
 4920000   0.80199676  -0.12827916    1.1417683    1.1663673    -5.272641    6.4144092    2.3081356 
 4930000   0.80283856  -0.18556748    1.1503423    1.1675915   -5.2648151    6.4151574    2.3179339 
 4940000   0.79350217  -0.19553749    1.1531206    1.1540133   -5.2626598    6.4157804     2.307134 
 4950000   0.79215553  -0.14017719    1.1481564    1.1520549     -5.26692    6.4150764    2.3002113 
 4960000   0.80106764 -0.062281284    1.1502651     1.165016   -5.2612133    6.4114784    2.3152811 
 4970000   0.79234529  -0.11846305    1.1516538    1.1523309   -5.2625038    6.4141576    2.3039846 
 4980000   0.80650778  -0.15676107     1.152709    1.1729278   -5.2623627    6.4150718    2.3256368 
 4990000   0.80356365  -0.10594353    1.1542121    1.1686461   -5.2589971    6.4132092    2.3228582 
 5000000   0.79829316  -0.13401912    1.1558192     1.160981   -5.2625998     6.418419    2.3168002 
 5010000   0.79635113  -0.13363262     1.153328    1.1581567   -5.2620411    6.4153691    2.3114846 
 5020000   0.80404825  -0.13645412    1.1494244    1.1693508   -5.2655003    6.4149247    2.3187752 
 5030000   0.80525691   -0.1107216    1.1489256    1.1711086   -5.2670878    6.4160134    2.3200342 
 5040000   0.79813896  -0.13423829    1.1488202    1.1607568   -5.2628346    6.4116548     2.309577 
 5050000   0.79648752  -0.10556785    1.1545533     1.158355   -5.2580751    6.4126284    2.3129083 
 5060000   0.79691271  -0.12280855    1.1497551    1.1589734   -5.2644145    6.4141696    2.3087285 
 5070000   0.80003494  -0.13969388    1.1606824    1.1635141    -5.254151    6.4148333    2.3241965 
 5080000   0.79837095  -0.21926973    1.1449845    1.1610942   -5.2705151    6.4154995    2.3060786 
 5090000   0.80362008 -0.099661314    1.1538968    1.1687281   -5.2611673    6.4150641     2.322625 
 5100000    0.7954043  -0.13080844    1.1443983    1.1567797    -5.269685    6.4140833     2.301178 
 5110000   0.79885305  -0.15453501    1.1535291    1.1617953   -5.2612635    6.4147926    2.3153244 
 5120000   0.79406002  -0.10169667    1.1545495    1.1548246   -5.2615446    6.4160941    2.3093741 
 5130000   0.79622832  -0.17689744    1.1530157    1.1579781   -5.2609299    6.4139456    2.3109937 
 5140000   0.79843177 -0.089099917    1.1523248    1.1611826   -5.2599727    6.4122976    2.3135074 
 5150000   0.78932435  -0.08313812    1.1568683    1.1479374   -5.2547248    6.4115931    2.3048057 
 5160000   0.79894092 -0.077705439    1.1553684    1.1619231   -5.2591793    6.4145477    2.3172915 
 5170000    0.7964518  -0.10882741    1.1527153    1.1583031   -5.2630007     6.415716    2.3110184 
 5180000   0.79770556  -0.15047989    1.1508405    1.1601265   -5.2622684    6.4131089    2.3109669 
 5190000   0.80271202  -0.15987057    1.1498308    1.1674075   -5.2648599    6.4146906    2.3172382 
 5200000   0.80173519  -0.12800979    1.1522194    1.1659869   -5.2598641    6.4120835    2.3182063 
 5210000   0.80051046  -0.15972606    1.1516488    1.1642057   -5.2646691    6.4163178    2.3158545 
 5220000   0.79923929 -0.090115928    1.1578384     1.162357   -5.2557278    6.4135662    2.3201954 
 5230000   0.79815804  -0.15419688    1.1487832    1.1607845   -5.2651962    6.4139795    2.3095677 
 5240000   0.79940754  -0.10237022     1.155352    1.1626017   -5.2605395    6.4158915    2.3179537 
 5250000   0.80590991  -0.16617207     1.146607    1.1720583   -5.2659894    6.4125963    2.3186652 
 5260000   0.79652854  -0.13607796    1.1485227    1.1584147    -5.268227    6.4167497    2.3069374 
 5270000   0.80668193  -0.13170173    1.1462018     1.173181   -5.2698653    6.4160671    2.3193829 
 5280000   0.79315218  -0.12335213    1.1540379    1.1535043   -5.2607543    6.4147922    2.3075423 
 5290000   0.80115463 -0.091416578     1.159793    1.1651425   -5.2518245    6.4116174    2.3249355 
 5300000   0.80349858 -0.091800952    1.1634554    1.1685514   -5.2529989    6.4164543    2.3320068 
 5310000   0.79759666  -0.17551759     1.144561    1.1599681   -5.2698474    6.4144084    2.3045291 
 5320000   0.80016954 -0.083438344    1.1601502    1.1637099   -5.2539635    6.4141138    2.3238601 
 5330000   0.78941981 -0.061981003    1.1513728    1.1480763   -5.2623072    6.4136799     2.299449 
 5340000   0.79525662   -0.1328512    1.1571986    1.1565649   -5.2597637    6.4169624    2.3137635 
 5350000   0.79773946  -0.11985885    1.1515853    1.1601758    -5.260037    6.4116223    2.3117611 
 5360000   0.79779141  -0.10722545    1.1498867    1.1602513   -5.2664152    6.4163019     2.310138 
 5370000   0.79902635  -0.11314069    1.1562115    1.1620473   -5.2574986    6.4137101    2.3182588 
 5380000   0.79700857  -0.11341249    1.1555821    1.1591128   -5.2601235    6.4157056    2.3146949 
 5390000   0.79652064  -0.07932107    1.1566796    1.1584032   -5.2589488    6.4156285    2.3150828 
 5400000   0.80030398  -0.10463161    1.1542101    1.1639054   -5.2618783    6.4160884    2.3181155 
 5410000   0.79835854  -0.11596625    1.1512213    1.1610761   -5.2637902    6.4150115    2.3122974 
 5420000   0.79272252  -0.14484442    1.1536863    1.1528795   -5.2583889    6.4120753    2.3065658 
 5430000   0.79305874   -0.1445635    1.1514583    1.1533685    -5.259438    6.4108963    2.3048267 
 5440000   0.80245092  -0.11774262    1.1524443    1.1670278   -5.2612658    6.4137101     2.319472 
 5450000   0.79622361  -0.19932943    1.1458578    1.1579712   -5.2673756    6.4132334    2.3038291 
 5460000   0.80250051  -0.14139877    1.1551138    1.1670999   -5.2580212     6.413135    2.3222137 
 5470000   0.80181457  -0.15017705    1.1525114    1.1661023   -5.2609651    6.4134764    2.3186137 
 5480000   0.80514442  -0.16864799     1.148104     1.170945   -5.2666915    6.4147955     2.319049 
 5490000   0.80072435  -0.12803636    1.1510016    1.1645168   -5.2663664     6.417368    2.3155184 
 5500000   0.79443071   -0.1140644    1.1548312    1.1553638   -5.2567147    6.4115459    2.3101949 
 5510000    0.8040177  -0.13147333    1.1530908    1.1693064   -5.2615184    6.4146092    2.3223972 
 5520000   0.80239014  -0.18640073    1.1494235    1.1669394   -5.2651185     6.414542    2.3163628 
 5530000   0.79516278  -0.10939585    1.1548693    1.1564284   -5.2607164    6.4155857    2.3112978 
 5540000   0.79579478  -0.22592924    1.1444002    1.1573475   -5.2705975    6.4149977    2.3017478 
 5550000    0.7971757   -0.1354224     1.158335    1.1593559    -5.256203     6.414538    2.3176909 
 5560000   0.80432321  -0.15491076    1.1521488    1.1697507   -5.2665017    6.4186505    2.3218995 
 5570000   0.79565373  -0.15011946    1.1510401    1.1571424   -5.2632867    6.4143268    2.3081825 
 5580000   0.80587289  -0.12548454     1.153929    1.1720044   -5.2613091    6.4152381    2.3259335 
 5590000   0.79485708  -0.17625471    1.1489754    1.1559838   -5.2663301    6.4153055    2.3049593 
 5600000   0.80111604  -0.17458216    1.1450112    1.1650864   -5.2686498    6.4136611    2.3100977 
 5610000   0.80505718  -0.13587484     1.146396    1.1708181   -5.2682775    6.4146735    2.3172141 
 5620000   0.79695814   -0.1228585    1.1504096    1.1590395   -5.2618754     6.412285    2.3094491 
 5630000   0.79383448  -0.20067477    1.1535119    1.1544966   -5.2629444    6.4164563    2.3080085 
 5640000     0.801296 -0.079936764    1.1440815    1.1653481   -5.2655498    6.4096313    2.3094297 
 5650000   0.79601732 -0.087294815    1.1609476    1.1576712   -5.2572784     6.418226    2.3186188 
 5660000    0.8040284  -0.19435132    1.1521924    1.1693219   -5.2610035    6.4131959    2.3215143 
 5670000   0.79702801   -0.1131573    1.1516213    1.1591411   -5.2616202    6.4132415    2.3107624 
 5680000   0.80128742  -0.13717234    1.1419371    1.1653357   -5.2733288    6.4152659    2.3072728 
 5690000   0.80382202  -0.14735646    1.1507265    1.1690218   -5.2628591    6.4135855    2.3197483 
 5700000   0.80023859  -0.10352985    1.1489708    1.1638103    -5.268893    6.4178638    2.3127811 
 5710000   0.79848983  -0.21267814    1.1436329     1.161267   -5.2736182    6.4172511    2.3048999 
 5720000    0.8038341  -0.15608353    1.1499543    1.1690394   -5.2655477     6.415502    2.3189937 
 5730000   0.79726599  -0.15531851     1.149108    1.1594872   -5.2663317    6.4154398    2.3085952 
 5740000   0.80734156  -0.19197523    1.1476596    1.1741404   -5.2697964     6.417456       2.3218 
 5750000   0.79772048  -0.20281293    1.1479654    1.1601482   -5.2670482    6.4150137    2.3081136 
 5760000   0.80006042  -0.12666624    1.1612892    1.1635512   -5.2551829     6.416472    2.3248404 
 5770000   0.80118432  -0.17581515    1.1535922    1.1651857   -5.2656642    6.4192563    2.3187779 
 5780000   0.80318467  -0.13771325    1.1516265    1.1680949   -5.2625452    6.4141717    2.3197214 
 5790000   0.79885191  -0.16484856    1.1441055    1.1617936   -5.2706755    6.4147811    2.3058991 
 5800000   0.79955209  -0.19740522    1.1446617    1.1628119   -5.2720084    6.4166701    2.3074736 
 5810000   0.79340589   -0.1483327    1.1501267    1.1538733   -5.2643988    6.4145255    2.3040001 
 5820000   0.80167383   -0.1214434    1.1527859    1.1658976   -5.2619108    6.4146967    2.3186836 
 5830000   0.79931296 -0.082329286    1.1484886    1.1624641   -5.2673153    6.4158039    2.3109527 
 5840000   0.79972623  -0.15185783    1.1523499    1.1630652    -5.262883    6.4152329    2.3154151 
 5850000   0.80293493 -0.069703627    1.1578059    1.1677317   -5.2616228    6.4194287    2.3255376 
 5860000   0.80588568  -0.14668331    1.1481687     1.172023   -5.2672675    6.4154362    2.3201917 
 5870000   0.79859925  -0.11858577    1.1540083    1.1614262   -5.2583152    6.4123235    2.3154345 
 5880000   0.80161639  -0.12244325    1.1496796    1.1658141   -5.2647515    6.4144312    2.3154937 
 5890000   0.80279052  -0.11448263    1.1504401    1.1675217   -5.2638676    6.4143077    2.3179618 
 5900000   0.80655586 -0.035027684     1.159024    1.1729977    -5.257223    6.4162469    2.3320217 
 5910000   0.80858217  -0.11492238    1.1555267    1.1759446   -5.2589549    6.4144816    2.3314713 
 5920000   0.79948307  -0.19400726    1.1479973    1.1627115   -5.2646546     6.412652    2.3107089 
 5930000   0.79506906 -0.075697856    1.1517718    1.1562921   -5.2669439    6.4187157    2.3080639 
 5940000   0.80374131  -0.09287828    1.1496855    1.1689044    -5.266444    6.4161295    2.3185899 
 5950000   0.80808985  -0.11933068    1.1415832    1.1752286      -5.2706    6.4121832    2.3168118 
 5960000   0.80849217  -0.17230939    1.1483392    1.1758137   -5.2639521    6.4122913     2.324153 
 5970000   0.80787238  -0.13686635    1.1479995    1.1749124   -5.2639209    6.4119204    2.3229118 
 5980000   0.80564223  -0.14977396    1.1531245     1.171669   -5.2652282    6.4183527    2.3247935 
 5990000   0.79237511  -0.17127959    1.1464795    1.1523742   -5.2696199    6.4160993    2.2988537 
 6000000   0.79986194  -0.13954729    1.1526537    1.1632625     -5.26224    6.4148938    2.3159163 
Loop time of 55367.5 on 216 procs for 6000000 steps with 27950 atoms

Performance: 46814.476 tau/day, 108.367 timesteps/s
99.9% CPU use with 216 MPI tasks x 1 OpenMP threads

MPI task timing breakdown:
Section |  min time  |  avg time  |  max time  |%varavg| %total
---------------------------------------------------------------
Pair    | 600.51     | 713.15     | 889.29     | 202.9 |  1.29
Bond    | 12.483     | 16.713     | 21.803     |  43.9 |  0.03
Kspace  | 48944      | 49185      | 49371      |  38.3 | 88.83
Neigh   | 740.14     | 775.71     | 818.63     |  61.8 |  1.40
Comm    | 1246.4     | 1525.7     | 1756.6     | 334.1 |  2.76
Output  | 2.5861     | 2.6346     | 2.6464     |   0.4 |  0.00
Modify  | 2560.3     | 2715.9     | 2906.4     | 150.4 |  4.91
Other   |            | 432.9      |            |       |  0.78

Nlocal:    129.398 ave 224 max 92 min
Histogram: 5 60 72 45 18 10 4 0 1 1
Nghost:    958.051 ave 1123 max 832 min
Histogram: 13 29 27 31 28 33 26 17 10 2
Neighs:    4820.23 ave 12216 max 2631 min
Histogram: 24 90 52 30 11 6 1 1 0 1

Total # of neighbors = 1041170
Ave neighs/atom = 37.2512
Ave special neighs/atom = 0.62254
Neighbor list builds = 806761
Dangerous builds = 0
System init for write_restart ...
PPPM initialization ...
  using 12-bit tables for long-range coulomb (src/kspace.cpp:332)
  G vector (1/distance) = 1.14923
  grid = 90 90 90
  stencil order = 5
  estimated absolute RMS force accuracy = 0.00011112
  estimated relative force accuracy = 0.00011112
  using double precision FFTW3
  3d grid and FFT values/proc = 8000 3600
WARNING: Neighbor exclusions used with KSpace solver may give inconsistent Coulombic energies (src/neighbor.cpp:486)
Neighbor list info ...
  update every 1 steps, delay 0 steps, check yes
  max neighbors/atom: 2000, page size: 100000
  master list distance cutoff = 2.8
  ghost atom cutoff = 2.8
  binsize = 1.4, bins = 24 24 24
  12 neighbor lists, perpetual/occasional/extra = 2 10 0
  (1) pair lj/cut, perpetual
      attributes: half, newton on
      pair build: half/bin/newton
      stencil: half/bin/3d/newton
      bin: standard
  (2) pair coul/long, perpetual, skip from (1)
      attributes: half, newton on
      pair build: skip
      stencil: none
      bin: none
  (3) compute rdf, occasional, copy from (1)
      attributes: half, newton on
      pair build: copy
      stencil: none
      bin: none
  (4) compute rdf, occasional, copy from (1)
      attributes: half, newton on
      pair build: copy
      stencil: none
      bin: none
  (5) compute rdf, occasional, copy from (1)
      attributes: half, newton on
      pair build: copy
      stencil: none
      bin: none
  (6) compute rdf, occasional, copy from (1)
      attributes: half, newton on
      pair build: copy
      stencil: none
      bin: none
  (7) compute rdf, occasional, copy from (1)
      attributes: half, newton on
      pair build: copy
      stencil: none
      bin: none
  (8) compute rdf, occasional, copy from (1)
      attributes: half, newton on
      pair build: copy
      stencil: none
      bin: none
  (9) compute rdf, occasional, copy from (1)
      attributes: half, newton on
      pair build: copy
      stencil: none
      bin: none
  (10) compute rdf, occasional, copy from (1)
      attributes: half, newton on
      pair build: copy
      stencil: none
      bin: none
  (11) compute rdf, occasional, copy from (1)
      attributes: half, newton on
      pair build: copy
      stencil: none
      bin: none
  (12) compute rdf, occasional, copy from (1)
      attributes: half, newton on
      pair build: copy
      stencil: none
      bin: none
PPPM initialization ...
  using 12-bit tables for long-range coulomb (src/kspace.cpp:332)
  G vector (1/distance) = 1.14923
  grid = 90 90 90
  stencil order = 5
  estimated absolute RMS force accuracy = 0.00011112
  estimated relative force accuracy = 0.00011112
  using double precision FFTW3
  3d grid and FFT values/proc = 8000 3600
WARNING: Neighbor exclusions used with KSpace solver may give inconsistent Coulombic energies (src/neighbor.cpp:486)
Neighbor list info ...
  update every 1 steps, delay 0 steps, check yes
  max neighbors/atom: 2000, page size: 100000
  master list distance cutoff = 2.8
  ghost atom cutoff = 2.8
  binsize = 1.4, bins = 24 24 24
  12 neighbor lists, perpetual/occasional/extra = 2 10 0
  (1) pair lj/cut, perpetual
      attributes: half, newton on
      pair build: half/bin/newton
      stencil: half/bin/3d/newton
      bin: standard
  (2) pair coul/long, perpetual, skip from (1)
      attributes: half, newton on
      pair build: skip
      stencil: none
      bin: none
  (3) compute rdf, occasional, copy from (1)
      attributes: half, newton on
      pair build: copy
      stencil: none
      bin: none
  (4) compute rdf, occasional, copy from (1)
      attributes: half, newton on
      pair build: copy
      stencil: none
      bin: none
  (5) compute rdf, occasional, copy from (1)
      attributes: half, newton on
      pair build: copy
      stencil: none
      bin: none
  (6) compute rdf, occasional, copy from (1)
      attributes: half, newton on
      pair build: copy
      stencil: none
      bin: none
  (7) compute rdf, occasional, copy from (1)
      attributes: half, newton on
      pair build: copy
      stencil: none
      bin: none
  (8) compute rdf, occasional, copy from (1)
      attributes: half, newton on
      pair build: copy
      stencil: none
      bin: none
  (9) compute rdf, occasional, copy from (1)
      attributes: half, newton on
      pair build: copy
      stencil: none
      bin: none
  (10) compute rdf, occasional, copy from (1)
      attributes: half, newton on
      pair build: copy
      stencil: none
      bin: none
  (11) compute rdf, occasional, copy from (1)
      attributes: half, newton on
      pair build: copy
      stencil: none
      bin: none
  (12) compute rdf, occasional, copy from (1)
      attributes: half, newton on
      pair build: copy
      stencil: none
      bin: none
Setting up Verlet run ...
  Unit style    : lj
  Current step  : 6000000
  Time step     : 0.005
Per MPI rank memory allocation (min/avg/max) = 17.72 | 19.01 | 19.76 Mbytes
Step Lx Ly Lz Press Pxx Pyy Pzz PotEng Temp 
 6000000     32.52804     32.52804     32.52804 -0.017988179   0.16496378  -0.40347811    0.1845498    1.1526537   0.79986194 
 6000010    33.178601    32.207559    32.207559  -0.12642623   -1.2894932   0.44303221    0.4671823    1.1654635    0.8054019 
 6000020    33.829161    31.896367    31.896367 -0.035205025   -1.4437595   0.67058864   0.66755577    1.1918679   0.81944017 
 6000030    34.479722    31.594025    31.594025  0.044688219   -1.4729459   0.77068467   0.83632588    1.2152719   0.83720352 
 6000040    35.130283    31.300121    31.300121  0.098761668   -1.5426479   0.93252634   0.90640658    1.2320691   0.86062049 
 6000050    35.780844    31.014269    31.014269   0.15668304   -1.5061047     0.959705    1.0164488    1.2583068   0.87804872 
 6000060    36.431405    30.736109    30.736109   0.29555242   -1.3771955    1.0882802    1.1755726    1.2836834   0.89510725 
 6000070    37.081965    30.465301    30.465301   0.42296195   -1.1921657      1.20391    1.2571415    1.3075073   0.91180451 
 6000080    37.732526    30.201527    30.201527   0.48625085   -1.2171131    1.3557838    1.3200818    1.3225962   0.93307612 
 6000090    38.383087    29.944488    29.944488   0.52306292   -1.1835256    1.3802885    1.3724259    1.3431813   0.95140612 
 6000100    39.033648    29.693902    29.693902   0.60318232   -0.9866861    1.4035766    1.3926564     1.361846   0.96767568 
Loop time of 1.0882 on 216 procs for 100 steps with 27950 atoms

Performance: 39698.696 tau/day, 91.895 timesteps/s
99.9% CPU use with 216 MPI tasks x 1 OpenMP threads

MPI task timing breakdown:
Section |  min time  |  avg time  |  max time  |%varavg| %total
---------------------------------------------------------------
Pair    | 0.0056639  | 0.011336   | 0.04169    |   4.6 |  1.04
Bond    | 2.1935e-05 | 0.00021506 | 0.00063801 |   0.0 |  0.02
Kspace  | 0.76221    | 0.79036    | 0.80137    |   0.8 | 72.63
Neigh   | 0.049363   | 0.051619   | 0.05433    |   0.5 |  4.74
Comm    | 0.031205   | 0.04014    | 0.050687   |   2.0 |  3.69
Output  | 0.0049939  | 0.0093217  | 0.01211    |   1.0 |  0.86
Modify  | 0.098408   | 0.11721    | 0.1534     |   2.6 | 10.77
Other   |            | 0.06799    |            |       |  6.25

Nlocal:    129.398 ave 218 max 97 min
Histogram: 14 70 64 40 12 9 5 0 1 1
Nghost:    963.495 ave 1130 max 829 min
Histogram: 8 26 33 25 28 36 33 18 7 2
Neighs:    4828.59 ave 12038 max 2841 min
Histogram: 36 85 50 26 10 6 1 1 0 1

Total # of neighbors = 1042975
Ave neighs/atom = 37.3157
Ave special neighs/atom = 0.62254
Neighbor list builds = 49
Dangerous builds = 0
PPPM initialization ...
  using 12-bit tables for long-range coulomb (src/kspace.cpp:332)
  G vector (1/distance) = 1.13918
  grid = 100 81 81
  stencil order = 5
  estimated absolute RMS force accuracy = 0.000129695
  estimated relative force accuracy = 0.000129695
  using double precision FFTW3
  3d grid and FFT values/proc = 8303 3500
WARNING: Neighbor exclusions used with KSpace solver may give inconsistent Coulombic energies (src/neighbor.cpp:486)
Neighbor list info ...
  update every 1 steps, delay 0 steps, check yes
  max neighbors/atom: 2000, page size: 100000
  master list distance cutoff = 2.8
  ghost atom cutoff = 2.8
  binsize = 1.4, bins = 28 22 22
  12 neighbor lists, perpetual/occasional/extra = 2 10 0
  (1) pair lj/cut, perpetual
      attributes: half, newton on
      pair build: half/bin/newton
      stencil: half/bin/3d/newton
      bin: standard
  (2) pair coul/long, perpetual, skip from (1)
      attributes: half, newton on
      pair build: skip
      stencil: none
      bin: none
  (3) compute rdf, occasional, copy from (1)
      attributes: half, newton on
      pair build: copy
      stencil: none
      bin: none
  (4) compute rdf, occasional, copy from (1)
      attributes: half, newton on
      pair build: copy
      stencil: none
      bin: none
  (5) compute rdf, occasional, copy from (1)
      attributes: half, newton on
      pair build: copy
      stencil: none
      bin: none
  (6) compute rdf, occasional, copy from (1)
      attributes: half, newton on
      pair build: copy
      stencil: none
      bin: none
  (7) compute rdf, occasional, copy from (1)
      attributes: half, newton on
      pair build: copy
      stencil: none
      bin: none
  (8) compute rdf, occasional, copy from (1)
      attributes: half, newton on
      pair build: copy
      stencil: none
      bin: none
  (9) compute rdf, occasional, copy from (1)
      attributes: half, newton on
      pair build: copy
      stencil: none
      bin: none
  (10) compute rdf, occasional, copy from (1)
      attributes: half, newton on
      pair build: copy
      stencil: none
      bin: none
  (11) compute rdf, occasional, copy from (1)
      attributes: half, newton on
      pair build: copy
      stencil: none
      bin: none
  (12) compute rdf, occasional, copy from (1)
      attributes: half, newton on
      pair build: copy
      stencil: none
      bin: none
Setting up Verlet run ...
  Unit style    : lj
  Current step  : 6000100
  Time step     : 0.005
Per MPI rank memory allocation (min/avg/max) = 17.68 | 19.01 | 19.78 Mbytes
Step Lx Ly Lz Press Pxx Pyy Pzz PotEng Temp 
 6000100    39.033648    29.693902    29.693902   0.90385975  -0.24788373    1.3846235    1.5748394     1.364183   0.96767568 
 6010000    39.033648    29.693902    29.693902  -0.15845453  -0.12468326   -0.1220202  -0.22866014    1.1468084   0.79551661 
 6020000    39.033648    29.693902    29.693902  -0.15118229  -0.20844541  -0.13246064  -0.11264082    1.1473978    0.7923488 
 6030000    39.033648    29.693902    29.693902  -0.13070874    -0.156822  -0.17810401 -0.057200209    1.1370847    0.8040476 
 6040000    39.033648    29.693902    29.693902   -0.1152013  -0.14415478 -0.080338927   -0.1211102    1.1443715   0.80516166 
 6050000    39.033648    29.693902    29.693902  -0.19973833  -0.16100485  -0.18630835  -0.25190177    1.1451821   0.79992964 
 6060000    39.033648    29.693902    29.693902  -0.16001184  -0.16369741  -0.13189369  -0.18444442    1.1548411   0.80641326 
 6070000    39.033648    29.693902    29.693902  -0.13415262  -0.13677564  -0.14448949  -0.12119272    1.1456592   0.79827275 
 6080000    39.033648    29.693902    29.693902  -0.13466405  -0.15851772  -0.12544443  -0.12002998    1.1540391   0.80005369 
 6090000    39.033648    29.693902    29.693902 -0.096435223  -0.09946838 -0.090434015 -0.099403276     1.151355   0.80240954 
 6100000    39.033648    29.693902    29.693902  -0.18092149  -0.23438199  -0.18767194  -0.12071054     1.145717   0.79771537 
 6100100    39.033648    29.693902    29.693902  -0.15537974  -0.17966314  -0.16998194  -0.11649414    1.1482524   0.80188694 
Loop time of 871.31 on 216 procs for 100000 steps with 27950 atoms

Performance: 49580.496 tau/day, 114.770 timesteps/s
99.9% CPU use with 216 MPI tasks x 1 OpenMP threads

MPI task timing breakdown:
Section |  min time  |  avg time  |  max time  |%varavg| %total
---------------------------------------------------------------
Pair    | 7.1943     | 11.335     | 32.295     | 129.5 |  1.30
Bond    | 0.029614   | 0.22836    | 0.5507     |  24.6 |  0.03
Kspace  | 756.7      | 779.32     | 787.88     |  18.3 | 89.44
Neigh   | 11.652     | 12.309     | 13.024     |   8.5 |  1.41
Comm    | 21.97      | 29.045     | 36.871     |  55.6 |  3.33
Output  | 0.040387   | 0.040424   | 0.040987   |   0.0 |  0.00
Modify  | 25.185     | 30.22      | 36         |  47.7 |  3.47
Other   |            | 8.809      |            |       |  1.01

Nlocal:    129.398 ave 199 max 103 min
Histogram: 23 72 32 44 25 8 7 1 2 2
Nghost:    964.25 ave 1135 max 821 min
Histogram: 5 23 31 31 32 34 28 23 7 2
Neighs:    4818.95 ave 9939 max 3191 min
Histogram: 54 52 36 40 15 11 4 2 0 2

Total # of neighbors = 1040893
Ave neighs/atom = 37.2413
Ave special neighs/atom = 0.62254
Neighbor list builds = 13453
Dangerous builds = 0
Total wall time: 18:07:14
