LAMMPS (3 Mar 2020)
OMP_NUM_THREADS environment is not set. Defaulting to 1 thread. (src/comm.cpp:94)
  using 1 OpenMP thread(s) per MPI task
Reading data file ...
  orthogonal box = (0 0 0) to (34 34 34)
  6 by 6 by 6 MPI processor grid
  reading atoms ...
  28900 atoms
  scanning bonds ...
  1 = max bonds/atom
  reading bonds ...
  8700 bonds
Finding 1-2 1-3 1-4 neighbors ...
  special bond factors lj:   0          0          0         
  special bond factors coul: 0          0          0         
  2 = max # of 1-2 neighbors
  2 = max # of 1-3 neighbors
  4 = max # of 1-4 neighbors
  6 = max # of special neighbors
  special bonds CPU = 2.45721 secs
  read_data CPU = 2.6087 secs
6000 atoms in group polyA
3000 atoms in group sticker
3000 atoms in group counterions
9000 atoms in group chain
1900 atoms in group filler
13100 atoms in group water
1900 atoms in group salt
27000 atoms in group exc
Finding 1-2 1-3 1-4 neighbors ...
  special bond factors lj:   0          1          1         
  special bond factors coul: 0          1          1         
  2 = max # of 1-2 neighbors
  6 = max # of special neighbors
  special bonds CPU = 0.020035 secs
100 rigid bodies with 1900 atoms
Neighbor list info ...
  update every 1 steps, delay 0 steps, check yes
  max neighbors/atom: 2000, page size: 100000
  master list distance cutoff = 1.7
  ghost atom cutoff = 1.7
  binsize = 0.85, bins = 40 40 40
  1 neighbor lists, perpetual/occasional/extra = 1 0 0
  (1) pair soft, perpetual
      attributes: half, newton on
      pair build: half/bin/newton
      stencil: half/bin/3d/newton
      bin: standard
Setting up Verlet run ...
  Unit style    : lj
  Current step  : 0
  Time step     : 0.005
WARNING: Communication cutoff 1.7 is shorter than a bond length based estimate of 1.755. This may lead to errors. (src/comm.cpp:686)
Per MPI rank memory allocation (min/avg/max) = 13.02 | 14.55 | 15.14 Mbytes
Step Temp Press TotEng Volume 
       0   0.79936292    5.4524228     18.21603        39304 
   10000   0.80211171    11.345596    11.978388        39304 
   20000   0.79929976    12.742425    12.343522        39304 
   30000   0.80418593    14.147907    12.686213        39304 
   40000   0.80472924    15.546188      13.0245        39304 
   50000   0.80253585    16.950498    13.339116        39304 
   60000   0.80514104    18.328837     13.67473        39304 
   70000   0.79919517     19.76451    14.000701        39304 
   80000    0.8042495    21.097444    14.321772        39304 
   90000   0.80596247    22.452811    14.650682        39304 
  100000   0.80387628    23.872705    14.988007        39304 
  110000   0.79930154    25.309778    15.317637        39304 
  120000   0.79926455    26.595741    15.683684        39304 
  130000   0.80486324      28.0129    16.028753        39304 
  140000   0.79654533    29.377769    16.389473        39304 
  150000   0.80549428    30.718398    16.759653        39304 
  160000   0.79699668    32.071995    17.113213        39304 
  170000   0.79636036    33.392548    17.478004        39304 
  180000    0.8012147    34.808118    17.833087        39304 
  190000   0.79655592    36.152566    18.208333        39304 
  200000   0.79280351    37.550236    18.567148        39304 
  210000   0.79568044    38.870111    18.932691        39304 
  220000   0.80291304    40.223225    19.315214        39304 
  230000   0.79283273    41.593016    19.651914        39304 
  240000    0.7978104    42.914649    20.026957        39304 
  250000   0.80327134    44.333734    20.404396        39304 
  260000   0.80418606    45.675895    20.768871        39304 
  270000   0.80165997    47.052993    21.138483        39304 
  280000   0.78936639      48.3479    21.475387        39304 
  290000   0.79948908    49.679101    21.858967        39304 
  300000   0.80502656    51.047652    22.223889        39304 
  310000   0.79957753     52.34263    22.591473        39304 
  320000   0.79879945    53.721794    22.948057        39304 
  330000   0.80249589    55.070489    23.310338        39304 
  340000   0.80024773    56.433761    23.673497        39304 
  350000   0.80430002    57.744224    24.052201        39304 
  360000   0.80053177    59.149513    24.406093        39304 
  370000   0.79999283    60.435259    24.771183        39304 
  380000   0.81015712    61.751325    25.150673        39304 
  390000   0.79687574    63.153944     25.48708        39304 
  400000   0.79904206    64.441749    25.858151        39304 
  410000   0.80421693    65.721021    26.227852        39304 
  420000   0.80039103    67.108423    26.591077        39304 
  430000   0.79739963    68.327116    26.946036        39304 
  440000   0.80371115    69.754448    27.316649        39304 
  450000   0.80324146    71.101363    27.668497        39304 
  460000   0.80169525    72.369136    28.040448        39304 
  470000   0.79346317    73.681959    28.394963        39304 
  480000   0.80049241    75.039008    28.747338        39304 
  490000   0.80567597    76.307574    29.120224        39304 
  500000   0.79983093    77.615798    29.483535        39304 
  510000   0.79513612    78.979602    29.837137        39304 
  520000    0.8020352    80.259683    30.190296        39304 
  530000   0.80016969    81.610401    30.565021        39304 
  540000   0.79920792      82.8871    30.916102        39304 
  550000   0.80058607      84.2379    31.267439        39304 
  560000   0.79180467    85.584343    31.634862        39304 
  570000   0.80521441    86.921333    32.004918        39304 
  580000   0.80127216    88.199084    32.347662        39304 
  590000   0.79413016    89.570661    32.704986        39304 
  600000   0.79588827    90.787632    33.079934        39304 
  610000   0.80618653    92.083107    33.435502        39304 
  620000   0.80262532    93.456652    33.782897        39304 
  630000   0.80604246    94.764877    34.161054        39304 
  640000    0.7930394    96.030813    34.495934        39304 
  650000    0.7981153    97.368822    34.863845        39304 
  660000    0.8025027    98.700889      35.2225        39304 
  670000   0.80027591    99.944565     35.58206        39304 
  680000   0.79877925    101.31738    35.942857        39304 
  690000   0.79704438    102.54919    36.289476        39304 
  700000    0.8007285    103.88543    36.648654        39304 
  710000   0.79323495    105.20623    37.005566        39304 
  720000   0.80070758    106.43425    37.369602        39304 
  730000   0.80610673    107.69721    37.726164        39304 
  740000    0.7908577    109.04062    38.068898        39304 
  750000    0.7996261    110.40908    38.439592        39304 
  760000   0.80052623    111.70084    38.785539        39304 
  770000   0.80112569    113.01674    39.149366        39304 
  780000   0.80045067    114.32123    39.508415        39304 
  790000   0.79618472    115.56246    39.849053        39304 
  800000   0.80151838    116.82255    40.232526        39304 
  810000   0.79874102    118.28099    40.570184        39304 
  820000   0.79629552    119.39829    40.921033        39304 
  830000   0.79885129    120.85165    41.281611        39304 
  840000   0.79724207    122.02143    41.639401        39304 
  850000   0.80069635    123.33078    42.000566        39304 
  860000   0.79491082    124.58711    42.335095        39304 
  870000   0.80119336    125.87323    42.694452        39304 
  880000   0.79975662    127.22321    43.058081        39304 
  890000   0.80307849    128.56983    43.414239        39304 
  900000   0.80368259    129.83099    43.768137        39304 
  910000   0.79838554    131.03309    44.113017        39304 
  920000    0.7989643    132.26194    44.462552        39304 
  930000   0.79603676    133.60286    44.821308        39304 
  940000     0.800506    135.00365    45.178842        39304 
  950000   0.79833159    136.19065    45.536381        39304 
  960000   0.80822427    137.47972    45.895907        39304 
  970000   0.80201865    138.75151    46.232692        39304 
  980000   0.79760248    140.02546    46.594695        39304 
  990000   0.79609925    141.34312    46.940023        39304 
 1000000   0.80616992    142.63743    47.309158        39304 
 1010000   0.79683584    143.86289    47.637436        39304 
 1020000   0.79929768    145.16611    48.009062        39304 
 1030000   0.79969372    146.42787    48.350099        39304 
 1040000   0.80456881    147.76017    48.718028        39304 
 1050000   0.80250021    149.01195    49.049054        39304 
 1060000   0.80845505      150.339    49.438314        39304 
 1070000   0.79412783    151.59723    49.751501        39304 
 1080000    0.7962695     152.8422    50.103407        39304 
 1090000   0.79851868    154.07254    50.459484        39304 
 1100000   0.79646276    155.42124    50.813175        39304 
 1110000   0.79041778    156.65106    51.153832        39304 
 1120000   0.80441495    157.88692    51.529955        39304 
 1130000   0.80293881    159.27129     51.88821        39304 
 1140000   0.79834969    160.53744     52.22537        39304 
 1150000   0.79864158    161.80874    52.569132        39304 
 1160000   0.80145738    163.02876    52.918998        39304 
 1170000   0.79941282    164.35492    53.265639        39304 
 1180000   0.80370793    165.55581    53.641484        39304 
 1190000   0.79879029    166.90838    53.983175        39304 
 1200000   0.79664627    168.13093    54.327249        39304 
 1210000   0.79652493    169.39929    54.677233        39304 
 1220000   0.79218004    170.56749    55.015375        39304 
 1230000   0.79419721    171.96827    55.367426        39304 
 1240000    0.7984228    173.29488    55.729618        39304 
 1250000   0.79923426    174.41996    56.080913        39304 
 1260000   0.80531034    175.73122     56.44026        39304 
 1270000   0.80204073      177.058     56.77906        39304 
 1280000   0.79407764    178.26785    57.121683        39304 
 1290000    0.8028467    179.46468    57.488578        39304 
 1300000   0.79557014    180.89759    57.818034        39304 
 1310000   0.79916094    182.01958    58.178359        39304 
 1320000   0.79821841    183.44281    58.525813        39304 
 1330000   0.80266208     184.6765    58.878229        39304 
 1340000   0.79693558    185.90752    59.218534        39304 
 1350000   0.79854722    187.13006    59.569715        39304 
 1360000     0.799083    188.31719    59.913702        39304 
 1370000    0.8035392    189.63998    60.272497        39304 
 1380000   0.80137476    191.03841    60.613016        39304 
 1390000    0.7997274    192.26488    60.968225        39304 
 1400000   0.79793525    193.57013    61.310788        39304 
 1410000   0.80455736    194.77963    61.673131        39304 
 1420000   0.79470281    196.06464    61.992177        39304 
 1430000   0.80058468    197.44028    62.373082        39304 
 1440000   0.80756393    198.50203    62.723869        39304 
 1450000   0.79915197       199.89    63.056731        39304 
 1460000   0.80196877    201.08242    63.411022        39304 
 1470000   0.80331626    202.28796    63.749123        39304 
 1480000   0.80431573    203.56848    64.105845        39304 
 1490000   0.79366848    204.93477    64.434731        39304 
 1500000   0.80193535    206.18461    64.799424        39304 
 1510000   0.80025998    207.40692    65.133561        39304 
 1520000   0.80276251    208.77615    65.504391        39304 
 1530000   0.80344485    209.99589    65.841552        39304 
 1540000   0.80834417    211.18253    66.186182        39304 
 1550000   0.79952179    212.43023    66.531433        39304 
 1560000     0.794294    213.71568    66.871858        39304 
 1570000   0.79755507    214.95321    67.217447        39304 
 1580000   0.79754588    216.25807    67.561328        39304 
 1590000   0.80389847    217.39652    67.917462        39304 
 1600000   0.79978459    218.75747    68.257591        39304 
 1610000   0.80365206    220.02028    68.612959        39304 
 1620000   0.80137366    221.28838    68.953251        39304 
 1630000   0.79336324    222.47662    69.287901        39304 
 1640000   0.80366934    223.79374    69.655947        39304 
 1650000   0.79759899     224.9992    69.987373        39304 
 1660000    0.7962898    226.29428    70.340872        39304 
 1670000    0.7998137    227.54352    70.684632        39304 
 1680000   0.80139799    228.77488    71.027026        39304 
 1690000   0.80952341    230.08026    71.388832        39304 
 1700000   0.79946399    231.24781    71.719206        39304 
 1710000   0.79469448    232.63055    72.052256        39304 
 1720000   0.80062925    233.77072    72.416575        39304 
 1730000   0.79876599    235.11995    72.755415        39304 
 1740000   0.79832647    236.33083    73.109977        39304 
 1750000   0.79999779    237.56381    73.457835        39304 
 1760000   0.80766065    238.81275    73.810186        39304 
 1770000    0.7953857    240.14934    74.140764        39304 
 1780000   0.79488482    241.32905    74.481111        39304 
 1790000   0.79578696    242.55085    74.812036        39304 
 1800000   0.79631221    243.77382    75.180437        39304 
 1810000   0.79835078    245.15894    75.531043        39304 
 1820000   0.79586607    246.39104    75.856671        39304 
 1830000   0.79863868    247.62967    76.197247        39304 
 1840000   0.80557043    248.98637    76.562149        39304 
 1850000    0.7996227    250.03719    76.893836        39304 
 1860000   0.79819871    251.32255    77.248126        39304 
 1870000   0.80278798    252.64552    77.598842        39304 
 1880000   0.79540977    253.91454    77.924573        39304 
 1890000   0.79626542    255.16593    78.266021        39304 
 1900000   0.80045131    256.28191    78.616421        39304 
 1910000   0.79893603    257.52769    78.950364        39304 
 1920000   0.80122685    258.69984     79.30036        39304 
 1930000    0.8050489    260.14934    79.657325        39304 
 1940000   0.79967946     261.2341    79.993064        39304 
 1950000   0.80262498    262.67774    80.347564        39304 
 1960000   0.80056304    263.78226    80.687913        39304 
 1970000   0.79957683      264.852    81.031699        39304 
 1980000    0.8006476    266.41668    81.370649        39304 
 1990000   0.79828254    267.61002    81.709031        39304 
 2000000   0.79682015    268.76689     82.05276        39304 
Loop time of 1096.88 on 216 procs for 2000000 steps with 28900 atoms

Performance: 787686.812 tau/day, 1823.349 timesteps/s
99.9% CPU use with 216 MPI tasks x 1 OpenMP threads

MPI task timing breakdown:
Section |  min time  |  avg time  |  max time  |%varavg| %total
---------------------------------------------------------------
Pair    | 131.07     | 140.13     | 162.29     |  44.5 | 12.78
Bond    | 0.98487    | 2.8654     | 4.9293     |  47.6 |  0.26
Neigh   | 72.849     | 79.396     | 85.155     |  24.2 |  7.24
Comm    | 256.15     | 296.81     | 333.32     |  84.1 | 27.06
Output  | 0.61126    | 0.61456    | 0.63086    |   0.2 |  0.06
Modify  | 409.89     | 433.93     | 482.53     |  56.5 | 39.56
Other   |            | 143.1      |            |       | 13.05

Nlocal:    133.796 ave 218 max 117 min
Histogram: 52 119 31 6 3 3 0 1 0 1
Nghost:    414.014 ave 470 max 382 min
Histogram: 8 24 55 56 32 15 15 7 2 2
Neighs:    923.472 ave 1661 max 781 min
Histogram: 62 110 28 8 2 3 1 1 0 1

Total # of neighbors = 199470
Ave neighs/atom = 6.90208
Ave special neighs/atom = 0.602076
Neighbor list builds = 237295
Dangerous builds = 0
System init for write_data ...
Neighbor list info ...
  update every 1 steps, delay 0 steps, check yes
  max neighbors/atom: 2000, page size: 100000
  master list distance cutoff = 2.8
  ghost atom cutoff = 2.8
  binsize = 1.4, bins = 25 25 25
  1 neighbor lists, perpetual/occasional/extra = 1 0 0
  (1) pair lj/cut, perpetual
      attributes: half, newton on
      pair build: half/bin/newton
      stencil: half/bin/3d/newton
      bin: standard
Setting up Verlet run ...
  Unit style    : lj
  Current step  : 2000000
  Time step     : 0.005
Per MPI rank memory allocation (min/avg/max) = 13.17 | 14.68 | 15.17 Mbytes
Step Temp Press TotEng Volume 
 2000000   0.79682015    9.6471779     5.121762        39304 
 2010000   0.79773405  -0.23589729    2.2120294    35431.164 
 2020000   0.80360013  -0.24102984    2.2181777    35387.256 
 2030000   0.80151127  -0.23681656    2.2156218    35466.976 
 2040000   0.80228276  -0.24300334    2.2267919    35557.523 
 2050000   0.79836198  -0.24373316     2.236912    35642.947 
 2060000   0.79910868  -0.23085371    2.2190945    35467.842 
 2070000   0.80313948   -0.2401028    2.2193995    35460.109 
 2080000   0.80578307  -0.24151055    2.2374624    35563.251 
 2090000   0.80051448  -0.24213581    2.2070017    35441.661 
 2100000   0.80504553  -0.23835609    2.2281083    35476.462 
 2110000   0.79804669  -0.23996618    2.2329437    35622.427 
 2120000   0.79825015  -0.23759604    2.2147913     35480.86 
 2130000   0.79862971   -0.2420753    2.2173945     35485.66 
 2140000   0.80137919  -0.24456736    2.2134289    35530.286 
 2150000   0.80290996  -0.24392422    2.2351643     35606.27 
 2160000   0.80674374   -0.2416604    2.2151798    35396.224 
 2170000    0.7919068  -0.23993929     2.192652    35387.755 
 2180000   0.80022833  -0.23682432    2.2355077    35637.493 
 2190000   0.79617412  -0.23549597    2.2308881    35619.567 
 2200000   0.80344467  -0.23258514    2.2254135    35502.025 
 2210000   0.80084787  -0.24207844     2.225867    35502.239 
 2220000   0.79994491  -0.24206184    2.2038311    35385.139 
 2230000   0.79832435  -0.23797034    2.2078956    35467.388 
 2240000   0.80254451  -0.23849741    2.2239794    35588.154 
 2250000    0.7959449  -0.23616022    2.2164263    35537.051 
 2260000   0.79941875   -0.2351256     2.222385    35537.433 
 2270000    0.8001491  -0.24518871    2.2093686    35429.283 
 2280000   0.79306603  -0.23778189    2.2003921    35429.912 
 2290000   0.80753702  -0.24122051     2.214945    35449.848 
 2300000    0.7970625  -0.23644099    2.2207645    35511.064 
 2310000   0.79371926  -0.22876415    2.2014719    35409.812 
 2320000    0.8073006  -0.24224792     2.227593    35477.067 
 2330000   0.79030994  -0.24103706    2.2130975    35566.098 
 2340000   0.79944629  -0.23560963    2.2167175    35475.644 
 2350000   0.80535058  -0.24198242    2.2267721    35540.288 
 2360000   0.80198294   -0.2361101    2.2309418    35539.942 
 2370000   0.80704509   -0.2434242    2.2138256    35393.543 
 2380000   0.80016765  -0.24176881    2.2224249    35492.438 
 2390000   0.80639154  -0.24082257    2.2186504    35482.476 
 2400000   0.79980578  -0.24638646    2.2072286    35419.478 
 2410000   0.79787992  -0.23928508    2.2226824    35564.579 
 2420000   0.80303301  -0.23445138    2.2304892     35569.42 
 2430000   0.79817084  -0.23081531     2.199392    35424.486 
 2440000    0.7961223  -0.24350396    2.1970057    35352.011 
 2450000   0.80297145  -0.24834881    2.1917496    35283.748 
 2460000   0.79764103  -0.24379406    2.2081128    35455.578 
 2470000   0.80077076  -0.23245006    2.2311829    35514.173 
 2480000   0.79969698  -0.23992434    2.1971069    35363.041 
 2490000   0.80219462  -0.24539389    2.2078629    35403.838 
 2500000   0.79091292  -0.24317885    2.2017069    35449.107 
 2510000   0.79339152  -0.23818185    2.2005704    35451.332 
 2520000   0.79931593  -0.23945803    2.1888267     35341.82 
 2530000    0.7997548  -0.24928826    2.2061009    35388.731 
 2540000   0.79959011   -0.2340173    2.2121602    35446.935 
 2550000   0.80676921  -0.23405457    2.2115887    35433.413 
 2560000   0.80135857  -0.23644046    2.2038103    35396.671 
 2570000   0.79516872  -0.24458195    2.2246989    35624.743 
 2580000   0.80716573  -0.23969609    2.2222908    35457.504 
 2590000   0.80526086  -0.24151483    2.2307778    35544.676 
 2600000   0.80646218  -0.24274384    2.2266553    35524.079 
 2610000   0.80126335  -0.23705426    2.2100392    35464.117 
 2620000   0.80583276  -0.23526341    2.2165498    35451.487 
 2630000    0.7949678   -0.2515526    2.1959952    35411.234 
 2640000   0.80082438  -0.23454638    2.2027886    35445.548 
 2650000   0.80003296  -0.24444877    2.2103966     35423.06 
 2660000   0.79984462  -0.24278736    2.2145052    35460.456 
 2670000   0.79235785  -0.23925708    2.1842141    35334.329 
 2680000   0.80179599  -0.23484405    2.2050089    35410.429 
 2690000   0.79723548  -0.24979878    2.1979112     35388.73 
 2700000   0.80644123  -0.24543642    2.2134616    35412.629 
 2710000     0.801615  -0.24400575    2.2038206    35397.074 
 2720000   0.80529084  -0.24577191    2.2131719    35445.161 
 2730000    0.7951765    -0.237141    2.1843548    35348.388 
 2740000   0.80167549  -0.24994788    2.2036129    35463.726 
 2750000   0.80811678  -0.23586455    2.2124818    35444.584 
 2760000   0.79829803  -0.23664077    2.1892211    35357.762 
 2770000   0.79952072  -0.24083968    2.1909685    35338.824 
 2780000   0.80079974  -0.24277067    2.1961524    35343.374 
 2790000   0.80157161  -0.24550324    2.2071274    35456.424 
 2800000    0.7973302  -0.24159362    2.2012322    35405.491 
 2810000   0.79693508  -0.24480659    2.1946545    35410.248 
 2820000   0.80199022  -0.24171065    2.1985149    35400.111 
 2830000   0.78929891   -0.2302067    2.1895262    35409.426 
 2840000   0.80032627  -0.25124626    2.1962341    35437.444 
 2850000   0.80030301  -0.24323755     2.178924    35289.991 
 2860000   0.80545274  -0.23744896    2.1931418    35298.851 
 2870000   0.79921993   -0.2346215    2.1958195    35401.666 
 2880000   0.79976565  -0.24335498    2.1898755    35361.711 
 2890000   0.79502224  -0.24209479    2.2100778    35531.216 
 2900000   0.80022334  -0.23898837     2.213383    35474.703 
 2910000   0.80382441  -0.24576392    2.1935432    35336.458 
 2920000   0.80135375  -0.23213645    2.2079446    35473.207 
 2930000   0.80186061  -0.23363493    2.2064563    35408.679 
 2940000   0.80411197  -0.24173588     2.204177     35399.51 
 2950000   0.79894262  -0.24324764    2.1896594    35323.446 
 2960000   0.80181273  -0.23714451    2.2028984    35429.993 
 2970000   0.80332154  -0.23486111    2.2161828    35487.009 
 2980000   0.79916821  -0.24412653    2.2135358    35485.307 
 2990000   0.80127897  -0.24336762    2.2126211    35480.499 
 3000000   0.80285217  -0.24796569    2.2026554    35377.599 
 3010000   0.79721193  -0.23533513    2.2015561    35420.534 
 3020000    0.8006869  -0.24758569    2.1935582    35341.704 
 3030000    0.8025852  -0.23605981    2.2159899    35530.439 
 3040000   0.79605733  -0.24513069    2.1958111    35393.027 
 3050000   0.79740423  -0.24184852    2.1985294    35426.343 
 3060000   0.79751607  -0.23287697     2.209993    35479.052 
 3070000   0.80095778  -0.24528022    2.1992927    35408.655 
 3080000   0.80934155  -0.25008564    2.1968531    35284.955 
 3090000   0.79500652  -0.23756806     2.190421    35451.117 
 3100000   0.80446189  -0.24745938    2.1958596     35301.09 
 3110000   0.79369396   -0.2404549    2.1938877    35404.399 
 3120000   0.80193053  -0.23737682    2.2077999    35419.118 
 3130000   0.79661062  -0.23551073    2.2152554    35492.444 
 3140000   0.80280255  -0.24680734    2.2001037    35408.076 
 3150000   0.79976427  -0.23622315    2.2036408    35433.793 
 3160000   0.80025794  -0.23997028    2.2081879    35441.843 
 3170000   0.79807062  -0.25036092    2.1954144    35423.832 
 3180000   0.80454978  -0.23954175     2.210341    35399.098 
 3190000   0.80315308  -0.24389685    2.1944545    35328.058 
 3200000   0.80255211  -0.24092915    2.2048782    35391.813 
 3210000   0.80572435  -0.23605506    2.2052978    35372.448 
 3220000   0.80001323  -0.24227279    2.2035899    35403.493 
 3230000   0.80445283  -0.24278446    2.2167974    35495.069 
 3240000   0.80480379  -0.25187424    2.2053185    35408.629 
 3250000   0.80311944  -0.23947087    2.2238604     35499.74 
 3260000   0.79986022  -0.22884922    2.2085995    35472.178 
 3270000   0.79906575  -0.23905247    2.1935241    35353.898 
 3280000   0.79884693  -0.24682205    2.1880393    35297.139 
 3290000   0.80417268  -0.24895635    2.2163419    35446.928 
 3300000   0.79948103    -0.240515    2.1800787    35287.675 
 3310000   0.79636223  -0.24595565    2.2096876    35452.474 
 3320000   0.79743057  -0.24398994    2.1867691    35316.651 
 3330000   0.79759902  -0.23947266    2.2069337    35447.187 
 3340000   0.79099024  -0.24110016    2.1917712    35422.246 
 3350000    0.7976562  -0.24404064    2.2012683    35428.632 
 3360000   0.79913696  -0.24351419    2.2082019    35436.825 
 3370000   0.80140034  -0.25036002    2.1851701    35365.204 
 3380000   0.79613843  -0.24325309    2.1999209     35499.51 
 3390000   0.80460912  -0.23910001    2.2120503    35502.208 
 3400000   0.80359573   -0.2431928    2.2091121    35444.179 
 3410000   0.80651001  -0.24155799    2.1949852    35348.299 
 3420000   0.80181851  -0.24271581    2.1930294    35351.055 
 3430000   0.79791176   -0.2397505    2.1797416    35304.554 
 3440000   0.80001511  -0.24817105    2.2027203    35438.526 
 3450000   0.80365868  -0.24222295    2.1904357    35333.598 
 3460000   0.79615261   -0.2405911    2.1891109    35383.507 
 3470000   0.80016549  -0.24058643    2.1951428    35396.704 
 3480000   0.79536442  -0.24413837    2.2077176    35459.922 
 3490000   0.79902258  -0.24082322    2.1897386    35364.588 
 3500000   0.79693157  -0.23964074    2.1818936     35388.91 
 3510000   0.80105997  -0.24776796    2.1979966    35386.569 
 3520000   0.80146569  -0.24389816    2.1946498    35338.956 
 3530000   0.79981543  -0.25124098    2.1977815    35428.636 
 3540000   0.80017087    -0.233841     2.203104    35396.123 
 3550000   0.81280296   -0.2525485    2.2221435    35496.299 
 3560000    0.7985919  -0.24073061    2.2038432    35428.998 
 3570000     0.804097  -0.24758174    2.1966067    35345.893 
 3580000   0.79944984  -0.24191265    2.2018761    35438.159 
 3590000   0.80755728  -0.23771256    2.1989314     35380.55 
 3600000   0.79949243  -0.24611946    2.1970689    35375.212 
 3610000   0.80555572  -0.23042715    2.2149307    35422.836 
 3620000   0.80324885  -0.23857678    2.1804609    35288.707 
 3630000    0.8066545  -0.24507038    2.2294825    35533.322 
 3640000   0.80137586  -0.23705491    2.2017093    35409.479 
 3650000   0.79954105  -0.23120303    2.1906576    35371.474 
 3660000   0.79972349  -0.24616814    2.2069569    35420.687 
 3670000   0.80277516  -0.24304575    2.2042777    35362.952 
 3680000   0.79780156  -0.24573307    2.2202113    35593.724 
 3690000    0.8004092  -0.22640858    2.2076911    35497.093 
 3700000    0.7982824  -0.24119953    2.2021249    35454.322 
 3710000   0.80465513  -0.23754285    2.1894925    35308.855 
 3720000    0.8001933   -0.2403812    2.2052302    35370.491 
 3730000   0.79652405  -0.23914384    2.1908751     35445.86 
 3740000   0.79560502  -0.24513567    2.1778942    35353.424 
 3750000   0.80805944  -0.24052825    2.2101695    35417.627 
 3760000    0.7960062  -0.23684834    2.1785566    35367.464 
 3770000   0.80297639  -0.24665632    2.1782558     35244.25 
 3780000   0.80439466  -0.23770982    2.1916645    35279.722 
 3790000   0.79485653  -0.24327348    2.1828049      35340.7 
 3800000   0.80137016  -0.24255618    2.1927274    35377.753 
 3810000   0.80033306  -0.23546991    2.1741435    35303.087 
 3820000   0.79491774  -0.24548372    2.1875457    35390.298 
 3830000   0.79358565  -0.24188139     2.182108    35321.783 
 3840000   0.80883743      -0.2469    2.2106042    35431.256 
 3850000   0.79744913   -0.2447973    2.2010072    35430.624 
 3860000    0.8072002  -0.24359937    2.2032118    35443.702 
 3870000   0.79666391  -0.24886103    2.1795716     35366.89 
 3880000   0.80036487  -0.24253517    2.1958881    35411.744 
 3890000   0.80683454  -0.23475143    2.1943283    35350.463 
 3900000   0.79984621  -0.23954564    2.1917015    35371.292 
 3910000   0.79474866  -0.24059373    2.1739995    35315.509 
 3920000   0.80153144  -0.24300741    2.2080169    35452.514 
 3930000   0.80080901  -0.22998607    2.1945735    35327.845 
 3940000   0.79882489  -0.24134973    2.1804634    35388.189 
 3950000   0.80251402  -0.25273445    2.1993271     35442.52 
 3960000   0.79605379  -0.24062915    2.1821841    35345.023 
 3970000   0.80583018  -0.24163537    2.2244507    35550.301 
 3980000   0.80142155  -0.23570705    2.1877469    35369.062 
 3990000   0.80067287  -0.24879813    2.1940333    35363.367 
 4000000   0.80270723  -0.25054379    2.1976862    35375.297 
 4010000   0.79770987  -0.22899745    2.1903463    35379.057 
 4020000   0.79939485  -0.24812044     2.202199    35410.203 
 4030000    0.7935139  -0.23689793    2.1925817    35460.801 
 4040000   0.79658329  -0.24084888    2.1939861    35449.319 
 4050000   0.80232188  -0.23808419    2.1934136    35354.406 
 4060000   0.80744123  -0.24904985    2.1856755    35241.835 
 4070000   0.79662383  -0.24588397    2.1949461    35393.667 
 4080000   0.79965921  -0.23998584    2.2070095    35440.205 
 4090000   0.79583259  -0.23638938     2.202347    35482.837 
 4100000   0.80987078  -0.24326096    2.1943048    35330.937 
 4110000   0.79486775  -0.24126944     2.182803    35350.431 
 4120000   0.79303778  -0.23625962    2.1736698    35272.293 
 4130000   0.79870426  -0.24658444    2.1816748    35295.641 
 4140000   0.79517228   -0.2445236    2.1849051    35359.503 
 4150000    0.7947109  -0.23006474    2.1969891    35481.671 
 4160000   0.80616379   -0.2425927    2.2046719    35409.809 
 4170000   0.79739038  -0.24138952    2.2059193    35493.891 
 4180000   0.80023881  -0.24600922    2.1824352    35268.629 
 4190000   0.79556671  -0.23505006    2.1627572    35264.351 
 4200000   0.79686501   -0.2418509    2.1914324    35367.663 
 4210000   0.80847875   -0.2511984    2.1971203    35342.503 
 4220000   0.79779635  -0.23957213    2.1866544    35339.867 
 4230000   0.80044407  -0.23308543    2.1848128    35339.613 
 4240000   0.79901708   -0.2330726    2.1711273    35251.229 
 4250000   0.79824071   -0.2490082     2.180066    35338.936 
 4260000    0.7888793  -0.23683832    2.1832129    35404.745 
 4270000   0.79624399  -0.24351767    2.1740644    35336.006 
 4280000   0.79236842  -0.23159522     2.193254    35427.078 
 4290000   0.79359453  -0.23702748    2.1861294    35454.931 
 4300000   0.79921929  -0.24403339    2.1912359    35391.922 
 4310000   0.79843492  -0.24518362     2.178913    35270.351 
 4320000   0.80996466  -0.23772531     2.204875    35380.348 
 4330000   0.79425067  -0.23381949    2.2022406    35459.413 
 4340000    0.8036555  -0.24291958    2.1967226    35449.653 
 4350000   0.79975416  -0.23637887     2.195091    35409.272 
 4360000    0.7954162  -0.23739137      2.17245    35328.876 
 4370000   0.80315954  -0.24205485    2.1920032    35318.254 
 4380000   0.79606675  -0.24807863    2.1639057    35193.559 
 4390000   0.80161841  -0.24073881    2.1756636    35276.752 
 4400000   0.79617371   -0.2391789    2.1745848    35321.104 
 4410000   0.79572172   -0.2328766    2.1627553    35241.163 
 4420000   0.79998633  -0.24333267    2.1819087    35339.265 
 4430000   0.79872012  -0.24207356    2.1853285    35348.781 
 4440000   0.79798313  -0.24113531    2.1763193    35314.743 
 4450000   0.79727426  -0.24465003    2.1732337    35330.836 
 4460000    0.7977966  -0.24035917     2.196729    35367.015 
 4470000     0.796703  -0.24304949    2.1903177    35353.578 
 4480000    0.7974559  -0.22972877    2.1965394    35402.116 
 4490000   0.80503761  -0.23871612    2.2058365    35423.352 
 4500000   0.80521958  -0.23608891    2.1842629    35356.905 
 4510000   0.80676676  -0.24413591     2.209133    35447.395 
 4520000   0.79891066  -0.24481671    2.1980454    35435.909 
 4530000   0.80250775  -0.23748861     2.189103    35369.621 
 4540000   0.81169917  -0.24988013    2.1961129    35342.536 
 4550000   0.80049244  -0.23769245    2.1857463    35337.791 
 4560000   0.80293872   -0.2475663    2.1860604    35318.481 
 4570000   0.79584121  -0.24009436    2.1739875    35303.439 
 4580000   0.80427722  -0.23564244    2.1859506    35327.189 
 4590000   0.79762103  -0.24296278    2.1705994     35295.38 
 4600000   0.79927544  -0.24590558    2.2069488    35471.929 
 4610000   0.80507235  -0.24611078     2.176832    35243.761 
 4620000   0.80112892  -0.24448585    2.1742106    35250.272 
 4630000   0.80087465  -0.23923121    2.1637434    35189.601 
 4640000   0.79389785   -0.2456533    2.1646208    35316.252 
 4650000   0.80058028   -0.2426183     2.190222    35372.542 
 4660000   0.80227955  -0.24810262    2.2020921    35392.188 
 4670000   0.79815641  -0.24249617    2.1849033    35335.288 
 4680000   0.80280924  -0.23452797    2.1874161    35325.624 
 4690000   0.80103695  -0.24115513    2.1831423    35302.234 
 4700000   0.80216812  -0.23904106        2.183    35252.607 
 4710000   0.80300744  -0.24733821    2.1863811    35283.078 
 4720000   0.79846052  -0.24246929    2.1950466    35365.609 
 4730000   0.80662231  -0.24171256    2.1875301    35259.759 
 4740000   0.80468592   -0.2481844    2.1972631    35362.309 
 4750000   0.79840542  -0.24320708    2.1837331    35366.568 
 4760000   0.80122556  -0.24136977    2.1930604    35355.588 
 4770000   0.79643363  -0.23731269    2.1775274    35336.884 
 4780000   0.79917386  -0.24979302     2.167507    35221.732 
 4790000   0.80224626  -0.24536697    2.1969247    35417.407 
 4800000   0.81274932  -0.24717676     2.222267    35392.115 
 4810000   0.80198102  -0.24624897     2.176385    35252.648 
 4820000   0.79662177  -0.23625172    2.1870868    35366.562 
 4830000   0.81079764  -0.23833484    2.1939882    35296.113 
 4840000    0.7977757  -0.24592956    2.1834349    35322.239 
 4850000       0.8001  -0.24222534    2.1711162    35191.867 
 4860000   0.80691948  -0.24263461    2.2001142     35394.26 
 4870000   0.80532921  -0.24320194    2.1949749    35362.143 
 4880000   0.79793736  -0.24004628    2.1941461    35380.474 
 4890000   0.79908345  -0.23746444    2.1868966    35379.419 
 4900000   0.80251165  -0.23778233    2.1775394    35273.439 
 4910000   0.80087203  -0.24013894    2.1892891     35315.42 
 4920000   0.79391233  -0.23802521    2.1848274    35390.575 
 4930000   0.80331157   -0.2599865    2.1594707    35142.311 
 4940000   0.80387738   -0.2337222    2.1894034    35314.603 
 4950000   0.80246769   -0.2357424     2.182214    35373.976 
 4960000   0.79962167  -0.23744038    2.1799243    35311.464 
 4970000   0.80171704  -0.24838697    2.1717139    35284.162 
 4980000   0.79846708  -0.24345853    2.1827222     35355.57 
 4990000   0.79598609  -0.23995066    2.1680104    35269.682 
 5000000   0.79865869  -0.23916838    2.1734733    35305.227 
 5010000   0.79887829  -0.24827188    2.1692347    35262.049 
 5020000   0.79438954  -0.23970343    2.1716534    35353.509 
 5030000   0.79739126  -0.24169899    2.1879698    35406.834 
 5040000   0.79577791  -0.24229797    2.1674532    35275.804 
 5050000   0.80591335   -0.2514478    2.1751823    35228.894 
 5060000   0.80221141  -0.23677708    2.1994382    35402.634 
 5070000   0.79790517  -0.23943024    2.1679706    35263.201 
 5080000   0.79958936  -0.23960559    2.1933039    35431.141 
 5090000   0.80016769   -0.2418765    2.1985662    35423.955 
 5100000   0.80021762  -0.22789346    2.1647085    35233.657 
 5110000   0.79864322  -0.24083302    2.1872606    35336.372 
 5120000   0.79868027  -0.23109098    2.1946678    35399.905 
 5130000   0.80034242     -0.24255    2.1897276    35389.195 
 5140000   0.80401754  -0.24208274    2.1885789     35316.23 
 5150000   0.80213838  -0.24741245    2.1783106    35305.703 
 5160000   0.79560793  -0.24320596    2.1852215     35400.33 
 5170000   0.79515921  -0.24238716    2.1887088      35439.4 
 5180000   0.80761285  -0.24183242    2.1949298    35339.112 
 5190000   0.81025929  -0.24266045    2.1910035     35303.66 
 5200000   0.79653352  -0.23621116    2.1908434    35417.447 
 5210000   0.80572203    -0.238465    2.1909159    35341.294 
 5220000   0.80430253  -0.23576895    2.1997063    35444.931 
 5230000   0.79662794  -0.24654546    2.1863442    35430.349 
 5240000   0.79616097  -0.23680707    2.1804358     35343.63 
 5250000    0.7970882  -0.24817122    2.1786355    35348.533 
 5260000   0.79712005  -0.24568783    2.1732382    35270.119 
 5270000   0.79639907  -0.24533779    2.1801397     35328.16 
 5280000   0.80136243  -0.23804452    2.1938519    35335.464 
 5290000   0.80982427  -0.24501683    2.1985477    35353.225 
 5300000    0.8002849  -0.24549141    2.1913041    35353.265 
 5310000   0.79444851  -0.23907493    2.1855496    35354.877 
 5320000   0.80670817  -0.24384467    2.1922438    35357.155 
 5330000   0.80458133  -0.24053392    2.1951618    35389.585 
 5340000    0.7986669  -0.24220139    2.1835866    35351.072 
 5350000   0.79447237  -0.24049667    2.1821458    35374.764 
 5360000   0.79996072  -0.24254763     2.185259    35383.035 
 5370000   0.79570546  -0.24059255    2.1727725    35320.124 
 5380000    0.7946744  -0.24506922    2.1642845    35291.446 
 5390000   0.79652538   -0.2504887    2.1768511     35302.21 
 5400000   0.80367552  -0.23838711    2.1650512    35214.084 
 5410000   0.80336568  -0.24205335    2.1707556    35178.478 
 5420000   0.80458496  -0.23743412    2.1893538    35362.894 
 5430000   0.79806967  -0.24517903    2.1698386    35248.554 
 5440000   0.80567725  -0.24710678    2.2189309    35510.618 
 5450000   0.79687071  -0.25056982    2.1580045    35204.351 
 5460000    0.8036361  -0.24062351    2.1693467    35233.269 
 5470000   0.80763056  -0.24770317    2.1796488    35262.549 
 5480000   0.79913896  -0.24155784    2.1747029    35282.708 
 5490000   0.80267821  -0.24299988     2.172253    35274.039 
 5500000    0.8019179  -0.24727819    2.1698625    35192.038 
 5510000   0.79591175  -0.23633057    2.1756861    35316.484 
 5520000   0.80253224  -0.25175119    2.1677735    35267.907 
 5530000   0.80047028  -0.24358902    2.1751139    35297.141 
 5540000   0.80060339  -0.24260567    2.1674403      35244.8 
 5550000   0.79988536  -0.24197478    2.1700224    35216.407 
 5560000   0.80066298  -0.23787681    2.1752959    35332.347 
 5570000   0.79286995  -0.24266065    2.1616179    35202.242 
 5580000   0.80411786  -0.24712137    2.1964726     35340.13 
 5590000   0.79638032  -0.22591634    2.1764637    35356.169 
 5600000   0.79987593  -0.23378462    2.1626073    35247.531 
 5610000   0.80071567  -0.23836862    2.1833954    35361.318 
 5620000   0.79585543  -0.23515937    2.1785531     35378.37 
 5630000   0.80296851  -0.24298116    2.1705905    35249.692 
 5640000   0.79932583  -0.24060594    2.2059573     35479.35 
 5650000   0.79456524  -0.22920783    2.1799545    35407.209 
 5660000   0.79618709   -0.2539747    2.1853814    35404.128 
 5670000   0.80156698  -0.25276285    2.1832816    35306.159 
 5680000   0.80555001   -0.2426912    2.1848394    35313.061 
 5690000   0.80051604   -0.2479207    2.1922637    35458.462 
 5700000   0.79594906  -0.24465131    2.1657919    35207.006 
 5710000   0.80393399  -0.24079448    2.1891985    35325.073 
 5720000   0.79774792  -0.24494732    2.1544267    35163.364 
 5730000   0.80213488  -0.24052394    2.1673711    35267.402 
 5740000    0.8029101  -0.24688167    2.1800181    35309.446 
 5750000   0.79954947  -0.24342473     2.179082    35340.931 
 5760000   0.79798755   -0.2440397     2.155894    35234.702 
 5770000   0.79908731  -0.24003633     2.167838    35253.471 
 5780000   0.79880315  -0.24832603    2.1810833    35356.906 
 5790000    0.8067775  -0.24302906    2.1946563    35344.246 
 5800000   0.79279456  -0.23975681    2.1813144    35416.172 
 5810000   0.80415985  -0.23659471    2.1885636    35354.713 
 5820000   0.79996291  -0.23140976    2.1579334    35184.236 
 5830000   0.79665537  -0.23773454    2.1705463    35317.137 
 5840000   0.80035008  -0.24446925    2.1807455    35311.288 
 5850000   0.79721962  -0.24110791    2.1774299    35333.529 
 5860000   0.80446838  -0.24127686    2.2014377    35414.271 
 5870000   0.79766532  -0.24193422    2.1723393    35274.035 
 5880000   0.79671775  -0.24673504    2.1737473     35291.58 
 5890000   0.79081361  -0.24104926    2.1530049    35225.821 
 5900000   0.80374758  -0.25439483    2.1831453    35331.979 
 5910000   0.79805447  -0.24814793      2.17886    35328.533 
 5920000   0.79912762  -0.25074217    2.1724776    35301.774 
 5930000   0.80271854  -0.24029045    2.1814358    35291.585 
 5940000   0.80431562  -0.23465142    2.1907058    35372.829 
 5950000   0.79618295  -0.24656014    2.1513629    35179.995 
 5960000   0.79479536  -0.23678945    2.1750244    35382.577 
 5970000   0.79947002  -0.23483211    2.1768272    35347.099 
 5980000   0.79850562  -0.23164109    2.1686659    35293.536 
 5990000   0.79229516   -0.2460113    2.1698283     35276.54 
 6000000   0.79949492  -0.23780181    2.1894358    35402.728 
 6010000   0.79855416  -0.24903728    2.1773288    35335.292 
 6020000   0.79802453  -0.23636238    2.1692672    35252.808 
 6030000   0.79925262   -0.2389882     2.178075     35341.37 
 6040000   0.79977258  -0.24136826     2.182648    35341.294 
 6050000   0.79524684   -0.2525142    2.1715904    35296.709 
 6060000   0.79659142  -0.24213445    2.1729607    35292.996 
 6070000   0.80252611  -0.24269628    2.1877448    35391.049 
 6080000   0.80635921  -0.23769511    2.1895708    35335.316 
 6090000    0.8022441  -0.24590573    2.1904703     35418.86 
 6100000   0.80012651  -0.23528078    2.1849388    35328.503 
 6110000   0.79808124  -0.24307891    2.1716689     35276.08 
 6120000   0.80561389  -0.23683375    2.1802585    35259.677 
 6130000   0.80016417  -0.24475792    2.1775638    35301.957 
 6140000   0.79257654  -0.24558978    2.1529712     35235.48 
 6150000   0.80720613  -0.24175828    2.1879724    35334.431 
 6160000   0.79429401  -0.23183587    2.1768644    35357.219 
 6170000    0.7914381  -0.23586315    2.1546869    35271.164 
 6180000   0.79552563  -0.23921273    2.1790336     35359.02 
 6190000    0.7995266  -0.23979883    2.1820636    35334.383 
 6200000   0.79564613  -0.23813421    2.1574803    35236.052 
 6210000   0.79259953  -0.24700228    2.1602262    35265.276 
 6220000   0.79932982  -0.23900537     2.166721    35283.834 
 6230000   0.80115757  -0.23736995    2.1989081    35436.405 
 6240000   0.80171864  -0.24290552    2.1749088    35253.572 
 6250000   0.79910791  -0.23895035    2.1717018     35313.53 
 6260000   0.79992498  -0.24104086    2.1708049    35276.807 
 6270000   0.79893287  -0.23943308    2.1664184    35255.992 
 6280000   0.79831958  -0.24605032    2.1737713    35341.679 
 6290000   0.79994363  -0.23770127    2.1726319    35291.996 
 6300000   0.79799007  -0.24357166      2.15954    35256.716 
 6310000   0.80216374  -0.23845494    2.1937322    35381.956 
 6320000    0.7999659  -0.24124898    2.1771178    35298.235 
 6330000   0.80163583  -0.23485456    2.1831828    35341.426 
 6340000    0.8038709  -0.24819218    2.1951725    35403.215 
 6350000   0.79445062  -0.24197443    2.1674948    35330.489 
 6360000   0.80199137  -0.24298072     2.179255    35299.843 
 6370000   0.80384288  -0.24216534    2.1714622    35253.521 
 6380000   0.79431211  -0.24478243    2.1641721    35285.448 
 6390000   0.80127085  -0.23643445    2.1844929    35353.336 
 6400000    0.8030327  -0.24365809    2.1774997    35334.791 
 6410000   0.79287543  -0.23717081    2.1413081    35143.391 
 6420000   0.79699665  -0.23427545     2.174654    35296.128 
 6430000   0.79851565  -0.23692325    2.1759255    35295.664 
 6440000   0.80483562  -0.23997404     2.192962    35426.764 
 6450000   0.79904798  -0.23806413    2.1824106    35407.421 
 6460000   0.80214593  -0.24212172    2.1961189    35431.674 
 6470000   0.79782709  -0.23767408     2.186624    35440.999 
 6480000   0.80480694  -0.24128364    2.1766216    35298.049 
 6490000   0.80124941  -0.24421279    2.1709865    35245.676 
 6500000   0.80806614  -0.23414226      2.18828    35292.248 
 6510000   0.80135587  -0.24631633    2.1856667    35386.097 
 6520000    0.7950032  -0.24297051    2.1620986     35237.21 
 6530000   0.79895449  -0.23586237    2.1736448    35315.382 
 6540000   0.80252807  -0.23564694    2.1751142    35295.435 
 6550000   0.80359793  -0.24529997    2.1827628    35288.141 
 6560000   0.80127695  -0.24282608    2.1656526    35216.474 
 6570000   0.79910017  -0.23821981     2.164991    35241.089 
 6580000   0.80351334  -0.24989544    2.1812008    35307.454 
 6590000   0.79808025  -0.24187329    2.1804916    35329.722 
 6600000   0.79982246  -0.24526556    2.1833379    35391.683 
 6610000   0.80257039  -0.24282097     2.174489    35298.754 
 6620000   0.79458735   -0.2394628    2.1628649    35362.618 
 6630000   0.79722651   -0.2367617      2.18359     35344.82 
 6640000   0.79761521  -0.23880159    2.1986934    35479.266 
 6650000   0.79562709  -0.23488738    2.1772146    35308.584 
 6660000   0.80272157  -0.24588975    2.1813945    35371.437 
 6670000   0.79881463  -0.24394646    2.1574335    35168.743 
 6680000   0.79374948  -0.24463248    2.1758847    35386.509 
 6690000   0.79779737  -0.23792962    2.1851463    35396.094 
 6700000   0.79326035  -0.24569338    2.1772897    35354.379 
 6710000   0.79948117  -0.23989546    2.1720265    35355.157 
 6720000   0.80001226  -0.23357773    2.1662266    35331.115 
 6730000   0.80116615  -0.25032179    2.1626163    35209.028 
 6740000   0.80014133  -0.23069921    2.1948336    35417.041 
 6750000   0.80179007  -0.23883518    2.1916511    35411.349 
 6760000   0.79828365  -0.23958321    2.1660446    35276.738 
 6770000   0.80194768  -0.24409619    2.1846148    35354.877 
 6780000   0.79364845  -0.24170564    2.1522612    35249.563 
 6790000   0.79217494  -0.24266013    2.1533281    35277.449 
 6800000   0.80685657  -0.23650294    2.1807192    35281.101 
 6810000   0.80471512  -0.24040439    2.1890983    35326.221 
 6820000   0.80333659   -0.2407064    2.1888551    35384.683 
 6830000   0.80409057  -0.24349227     2.187726    35330.763 
 6840000   0.79466209   -0.2431199    2.1690348    35325.445 
 6850000   0.79421332  -0.24852357    2.1657864    35309.107 
 6860000   0.79707095  -0.24640844    2.1749644    35374.055 
 6870000   0.80195235  -0.24356398    2.1863795    35369.189 
 6880000   0.79850133  -0.23971854    2.1791217    35353.244 
 6890000   0.80175288   -0.2474423    2.1775477    35355.576 
 6900000    0.7975204  -0.24021945    2.1728394    35301.567 
 6910000   0.79607506   -0.2470523    2.1625591    35306.535 
 6920000    0.8050048  -0.22996336    2.1773913    35312.637 
 6930000   0.80242321  -0.25017535    2.1698679    35250.152 
 6940000   0.80210063  -0.23245202    2.1719184    35292.702 
 6950000   0.80601791  -0.23602949    2.1964571      35425.5 
 6960000   0.80042532   -0.2511106    2.1718411    35312.993 
 6970000   0.80480048  -0.24550608    2.1806903    35324.292 
 6980000   0.80134703  -0.24527569    2.1747547     35346.52 
 6990000    0.8026211  -0.23593253    2.1919524    35414.694 
 7000000   0.80176698  -0.23571921    2.1844711    35416.424 
Loop time of 4481.45 on 216 procs for 5000000 steps with 28900 atoms

Performance: 481987.151 tau/day, 1115.711 timesteps/s
99.9% CPU use with 216 MPI tasks x 1 OpenMP threads

MPI task timing breakdown:
Section |  min time  |  avg time  |  max time  |%varavg| %total
---------------------------------------------------------------
Pair    | 434.77     | 495.49     | 621.38     | 124.2 | 11.06
Bond    | 8.2734     | 9.668      | 11.563     |  19.6 |  0.22
Neigh   | 675.35     | 710.59     | 743.4      |  52.2 | 15.86
Comm    | 947.53     | 1100.8     | 1238.5     | 161.4 | 24.56
Output  | 2.0311     | 2.0363     | 2.0783     |   0.2 |  0.05
Modify  | 1778       | 1927       | 2054.6     | 116.7 | 43.00
Other   |            | 235.8      |            |       |  5.26

Nlocal:    133.796 ave 236 max 109 min
Histogram: 40 112 34 10 7 6 2 3 0 2
Nghost:    974.319 ave 1251 max 866 min
Histogram: 24 63 52 29 21 10 8 5 2 2
Neighs:    4866.44 ave 11391 max 3423 min
Histogram: 65 94 30 9 6 5 3 0 3 1

Total # of neighbors = 1051150
Ave neighs/atom = 36.372
Ave special neighs/atom = 0.602076
Neighbor list builds = 693509
Dangerous builds = 26
System init for write_restart ...
Setting atom values ...
  3000 settings made for charge
Setting atom values ...
  3000 settings made for charge
Setting atom values ...
  1900 settings made for charge
Setting atom values ...
  1900 settings made for charge
System init for write_data ...
PPPM initialization ...
  using 12-bit tables for long-range coulomb (src/kspace.cpp:332)
  G vector (1/distance) = 1.16623
  grid = 96 96 96
  stencil order = 5
  estimated absolute RMS force accuracy = 0.000109911
  estimated relative force accuracy = 0.000109911
  using double precision FFTW3
  3d grid and FFT values/proc = 9261 4608
WARNING: Neighbor exclusions used with KSpace solver may give inconsistent Coulombic energies (src/neighbor.cpp:486)
Neighbor list info ...
  update every 1 steps, delay 0 steps, check yes
  max neighbors/atom: 2000, page size: 100000
  master list distance cutoff = 2.8
  ghost atom cutoff = 2.8
  binsize = 1.4, bins = 24 24 24
  2 neighbor lists, perpetual/occasional/extra = 2 0 0
  (1) pair lj/cut, perpetual
      attributes: half, newton on
      pair build: half/bin/newton
      stencil: half/bin/3d/newton
      bin: standard
  (2) pair coul/long, perpetual, skip from (1)
      attributes: half, newton on
      pair build: skip
      stencil: none
      bin: none
PPPM initialization ...
  using 12-bit tables for long-range coulomb (src/kspace.cpp:332)
  G vector (1/distance) = 1.16623
  grid = 96 96 96
  stencil order = 5
  estimated absolute RMS force accuracy = 0.000109911
  estimated relative force accuracy = 0.000109911
  using double precision FFTW3
  3d grid and FFT values/proc = 9261 4608
WARNING: Neighbor exclusions used with KSpace solver may give inconsistent Coulombic energies (src/neighbor.cpp:486)
Neighbor list info ...
  update every 1 steps, delay 0 steps, check yes
  max neighbors/atom: 2000, page size: 100000
  master list distance cutoff = 2.8
  ghost atom cutoff = 2.8
  binsize = 1.4, bins = 24 24 24
  2 neighbor lists, perpetual/occasional/extra = 2 0 0
  (1) pair lj/cut, perpetual
      attributes: half, newton on
      pair build: half/bin/newton
      stencil: half/bin/3d/newton
      bin: standard
  (2) pair coul/long, perpetual, skip from (1)
      attributes: half, newton on
      pair build: skip
      stencil: none
      bin: none
Setting up Verlet run ...
  Unit style    : lj
  Current step  : 7000000
  Time step     : 0.005
Per MPI rank memory allocation (min/avg/max) = 14.96 | 16.35 | 16.96 Mbytes
Step Temp Press TotEng Volume 
 7000000   0.80176698  -0.16326334    2.9078564    35416.424 
 7010000    0.8023219  -0.24402923    1.2194455    35416.424 
 7020000   0.80417784  -0.28669077    1.0966247    35416.424 
 7030000   0.80459221  -0.33726064     1.029459    35416.424 
 7040000    0.8052686  -0.19743162   0.98270922    35416.424 
 7050000   0.79969199  -0.33383979   0.94774958    35416.424 
 7060000   0.80187711  -0.30675211   0.92027731    35416.424 
 7070000   0.79139047  -0.23517279   0.88612616    35416.424 
 7080000   0.80299754  -0.30386245   0.89267845    35416.424 
 7090000   0.80298903  -0.27467281   0.88547138    35416.424 
 7100000   0.79770912  -0.24705207   0.86045992    35416.424 
 7110000   0.79933667  -0.27468126   0.85178381    35416.424 
 7120000   0.79755844  -0.25905878   0.83941765    35416.424 
 7130000   0.80322545  -0.31085418   0.83497944    35416.424 
 7140000   0.80028361  -0.35020281   0.83321089    35416.424 
 7150000   0.79809751  -0.32607931   0.83270265    35416.424 
 7160000   0.79967581  -0.26743769    0.8224844    35416.424 
 7170000   0.79700413  -0.26471695   0.81930862    35416.424 
 7180000   0.80091858  -0.25145774    0.8184798    35416.424 
 7190000   0.80743201  -0.26294848   0.81316578    35416.424 
 7200000   0.79698749  -0.26751896   0.79786304    35416.424 
 7210000    0.8040939  -0.30683985   0.79718729    35416.424 
 7220000   0.80242145   -0.2980095   0.80497434    35416.424 
 7230000   0.79954427  -0.28523932   0.78308953    35416.424 
 7240000   0.80229932  -0.29511543   0.78629343    35416.424 
 7250000   0.79740354  -0.27282875    0.7684073    35416.424 
 7260000   0.80027451  -0.26744448   0.77571154    35416.424 
 7270000   0.79968012  -0.28026696   0.77026366    35416.424 
 7280000   0.79645569  -0.20080485   0.76509349    35416.424 
 7290000   0.79605772  -0.32067162   0.76487611    35416.424 
 7300000    0.7944941   -0.2411639   0.75852316    35416.424 
 7310000   0.80078958  -0.25967992   0.75604139    35416.424 
 7320000   0.80006567  -0.29104585   0.76682241    35416.424 
 7330000   0.79590172  -0.31743353   0.75734923    35416.424 
 7340000   0.79459456  -0.28031374   0.76500969    35416.424 
 7350000   0.80038126  -0.28905919   0.75583369    35416.424 
 7360000   0.79498252  -0.29561113   0.74729997    35416.424 
 7370000   0.80524342  -0.25251503   0.75828394    35416.424 
 7380000   0.80449445  -0.24765571   0.74670986    35416.424 
 7390000   0.79607895  -0.23665964   0.74210376    35416.424 
 7400000   0.79793999  -0.31318757   0.73922363    35416.424 
 7410000   0.80560137  -0.31319008   0.75028512    35416.424 
 7420000   0.80268995   -0.3184717   0.74873508    35416.424 
 7430000   0.79392198  -0.38937051   0.73348098    35416.424 
 7440000   0.80099779   -0.2239743   0.73819254    35416.424 
 7450000   0.79291948  -0.31277509    0.7252927    35416.424 
 7460000    0.7969857   -0.2809314   0.72218229    35416.424 
 7470000   0.79789798  -0.28897294    0.7257232    35416.424 
 7480000   0.80299841  -0.30735492   0.74047054    35416.424 
 7490000    0.7976594  -0.33045481   0.73146323    35416.424 
 7500000   0.79713319  -0.25577278   0.72044777    35416.424 
 7510000   0.80209296   -0.2486832    0.7339404    35416.424 
 7520000   0.80081484   -0.2295741   0.73287598    35416.424 
 7530000   0.79916908  -0.30034493   0.71882221    35416.424 
 7540000   0.79584232  -0.28605268   0.71446986    35416.424 
 7550000   0.80510483  -0.28135803   0.72724675    35416.424 
 7560000   0.80209706  -0.24185602    0.7204027    35416.424 
 7570000   0.79837592  -0.32369303   0.70558291    35416.424 
 7580000   0.80151133  -0.23604119   0.71257098    35416.424 
 7590000   0.80690821  -0.26202404    0.7209719    35416.424 
 7600000    0.7964621  -0.24048246   0.69990178    35416.424 
 7610000   0.80437333  -0.31726176   0.70321691    35416.424 
 7620000   0.79694667  -0.27345424   0.70154623    35416.424 
 7630000   0.80402807  -0.25316912   0.70731132    35416.424 
 7640000   0.79913322  -0.26845984   0.69703983    35416.424 
 7650000   0.80207051  -0.25243835   0.69970095    35416.424 
 7660000    0.7996672  -0.24354528   0.70316821    35416.424 
 7670000   0.80571488  -0.27686168   0.70759967    35416.424 
 7680000   0.80493243  -0.32091696   0.70103777    35416.424 
 7690000   0.80177353  -0.25322482   0.69691984    35416.424 
 7700000   0.79841718  -0.19179279   0.69885626    35416.424 
 7710000    0.8014382  -0.26752909   0.70004022    35416.424 
 7720000   0.79526548  -0.30369191   0.68948068    35416.424 
 7730000   0.80034544  -0.31380453   0.69691403    35416.424 
 7740000   0.80330944  -0.24732565   0.70917191    35416.424 
 7750000   0.79732412  -0.26817069   0.68898735    35416.424 
 7760000    0.7973899  -0.28797491   0.69533623    35416.424 
 7770000   0.80326875   -0.2669025   0.70436368    35416.424 
 7780000   0.79981433  -0.24902407   0.68875892    35416.424 
 7790000   0.80114045  -0.24990533   0.68430159    35416.424 
 7800000   0.80132326  -0.30106106   0.69184054    35416.424 
 7810000   0.80264031  -0.29839182   0.69641814    35416.424 
 7820000   0.79518311  -0.27182314   0.68114478    35416.424 
 7830000   0.80633702  -0.25250721   0.69935085    35416.424 
 7840000   0.80190215  -0.36580837   0.68467479    35416.424 
 7850000   0.80802495  -0.17278053   0.70002203    35416.424 
 7860000   0.80514201  -0.23754961   0.68910631    35416.424 
 7870000   0.80246871  -0.25628995    0.6829705    35416.424 
 7880000   0.79948718   -0.2624827   0.69105637    35416.424 
 7890000   0.80300174  -0.27073762   0.69088971    35416.424 
 7900000   0.80369781  -0.24090007   0.69045543    35416.424 
 7910000   0.79914902  -0.23310843   0.68407957    35416.424 
 7920000    0.7969305  -0.25661244   0.68957171    35416.424 
 7930000    0.8042277  -0.29204497   0.68327369    35416.424 
 7940000   0.80594834    -0.267371   0.68589544    35416.424 
 7950000   0.80218073  -0.19632872   0.68644669    35416.424 
 7960000   0.80075778  -0.21874063   0.69224763    35416.424 
 7970000   0.80298458  -0.23530395    0.6847643    35416.424 
 7980000   0.79428886  -0.31660275   0.66948076    35416.424 
 7990000    0.8070631  -0.25682808   0.69323089    35416.424 
 8000000   0.80118782  -0.20694553   0.68314886    35416.424 
 8010000   0.80828942  -0.30314878   0.68976185    35416.424 
 8020000   0.80128409  -0.27221929   0.68360118    35416.424 
 8030000   0.79224812   -0.2215348   0.67092431    35416.424 
 8040000   0.79491565  -0.21266394    0.6669045    35416.424 
 8050000   0.79607307  -0.28428381   0.67073706    35416.424 
 8060000   0.80008715  -0.26616954    0.6716015    35416.424 
 8070000   0.79214737   -0.2685749   0.65775189    35416.424 
 8080000   0.80255288  -0.27694794   0.66822703    35416.424 
 8090000   0.79933821  -0.24413738   0.67753068    35416.424 
 8100000   0.79253598  -0.32386479   0.66473949    35416.424 
 8110000   0.80155433  -0.27647957   0.68025008    35416.424 
 8120000   0.80574899  -0.22575147   0.67489194    35416.424 
 8130000    0.8023855  -0.26912779   0.68122226    35416.424 
 8140000   0.80605767  -0.29356709   0.67460203    35416.424 
 8150000   0.80207602  -0.30749343   0.67235454    35416.424 
 8160000   0.79867046  -0.21853913   0.67910802    35416.424 
 8170000   0.80102819  -0.32264999   0.66636366    35416.424 
 8180000    0.8004052  -0.28483861   0.66270451    35416.424 
 8190000   0.80080909  -0.22387702    0.6741255    35416.424 
 8200000   0.80689768  -0.20927716   0.67578497    35416.424 
 8210000   0.80422071  -0.27945963   0.67542107    35416.424 
 8220000   0.79843602  -0.21268062   0.66684239    35416.424 
 8230000   0.80196836  -0.21324059   0.67897697    35416.424 
 8240000   0.80059405  -0.29146967   0.65446776    35416.424 
 8250000   0.81074386  -0.27284627   0.68050187    35416.424 
 8260000   0.80775933  -0.32600206   0.67720769    35416.424 
 8270000   0.79916642  -0.18394079   0.67080618    35416.424 
 8280000   0.80536469  -0.21503686   0.68160526    35416.424 
 8290000   0.79920149  -0.25455327   0.65461657    35416.424 
 8300000   0.79757031  -0.26160677   0.66764912    35416.424 
 8310000   0.80330787  -0.25105784   0.66684093    35416.424 
 8320000   0.80615704  -0.35489468   0.66661435    35416.424 
 8330000    0.8007591  -0.31851603   0.66810599    35416.424 
 8340000    0.8041318   -0.2430541   0.67111398    35416.424 
 8350000   0.79570439  -0.30399956   0.65800829    35416.424 
 8360000   0.79644718  -0.28730021   0.64938148    35416.424 
 8370000   0.81221575  -0.30895184   0.67601307    35416.424 
 8380000   0.79717042  -0.30837106   0.65268435    35416.424 
 8390000    0.7985192  -0.26088052   0.66877043    35416.424 
 8400000    0.7941523  -0.33686671   0.65070083    35416.424 
 8410000   0.80584616  -0.24014063   0.66442863    35416.424 
 8420000   0.79581704  -0.22700931   0.65946843    35416.424 
 8430000   0.79935564  -0.31828107   0.65597914    35416.424 
 8440000   0.80345411  -0.18904612   0.66660424    35416.424 
 8450000   0.80033085  -0.28513379   0.65596738    35416.424 
 8460000   0.79692236  -0.21548592   0.65514943    35416.424 
 8470000   0.80554904   -0.2609035      0.66258    35416.424 
 8480000   0.80318886  -0.26980578   0.65718658    35416.424 
 8490000   0.80037733  -0.20198589   0.65394045    35416.424 
 8500000   0.80454879  -0.26685591   0.66264235    35416.424 
 8510000   0.79889349  -0.34669297   0.65926103    35416.424 
 8520000   0.79933004  -0.24692525   0.65617796    35416.424 
 8530000   0.79830241  -0.28960098   0.65831825    35416.424 
 8540000   0.79579353  -0.31459146   0.64335299    35416.424 
 8550000   0.79962688  -0.35918916   0.64787305    35416.424 
 8560000   0.79522703  -0.33142289   0.63349747    35416.424 
 8570000   0.79760182  -0.28904881    0.6471338    35416.424 
 8580000    0.7921242  -0.24759126   0.63745317    35416.424 
 8590000    0.8023169   -0.2515097   0.65423417    35416.424 
 8600000   0.79366457  -0.26754072   0.64137452    35416.424 
 8610000   0.80396683   -0.3033166   0.65283535    35416.424 
 8620000   0.80059557  -0.23271254   0.63855136    35416.424 
 8630000   0.80323919  -0.21472702   0.66297811    35416.424 
 8640000   0.79758324  -0.20151616   0.64484655    35416.424 
 8650000   0.80629178   -0.1500958   0.65434329    35416.424 
 8660000   0.80342908  -0.23483277   0.65684473    35416.424 
 8670000    0.8030061  -0.21316308   0.65225351    35416.424 
 8680000   0.79862497  -0.24974494   0.64706289    35416.424 
 8690000   0.80225454  -0.23676096   0.65910504    35416.424 
 8700000   0.80666791  -0.25904701   0.65583888    35416.424 
 8710000   0.80424953  -0.17900152   0.65157621    35416.424 
 8720000   0.79334632  -0.19497408   0.63110542    35416.424 
 8730000   0.80098141  -0.31602233   0.63541062    35416.424 
 8740000   0.80509959   -0.2891459   0.64548854    35416.424 
 8750000     0.795374  -0.24610568    0.6486394    35416.424 
 8760000   0.79809879  -0.28033261   0.63769872    35416.424 
 8770000   0.79499488  -0.22621805   0.64043074    35416.424 
 8780000   0.79953899  -0.26227952     0.643405    35416.424 
 8790000   0.79924435  -0.29938075   0.63721811    35416.424 
 8800000   0.79883617   -0.2941549   0.63463243    35416.424 
 8810000   0.79934849  -0.30864428   0.63649796    35416.424 
 8820000   0.80441202  -0.31444035   0.64122391    35416.424 
 8830000   0.80220024  -0.25191871   0.63460661    35416.424 
 8840000   0.80084311   -0.2568387   0.65047635    35416.424 
 8850000   0.79587764  -0.26071528   0.62954101    35416.424 
 8860000   0.79314611  -0.30760671   0.62603166    35416.424 
 8870000   0.80391277  -0.24448433   0.63449128    35416.424 
 8880000   0.79782495  -0.31413924   0.63075984    35416.424 
 8890000   0.80517808  -0.23807729   0.64786252    35416.424 
 8900000   0.80339149  -0.30313742   0.63499319    35416.424 
 8910000   0.80593914  -0.23383464   0.64588194    35416.424 
 8920000   0.80469457  -0.31773722   0.64187619    35416.424 
 8930000   0.80142215  -0.26355556   0.63559722    35416.424 
 8940000   0.80936528  -0.26907778   0.64492654    35416.424 
 8950000   0.81162671  -0.17071286   0.65908879    35416.424 
 8960000   0.80289925  -0.26315008   0.63791907    35416.424 
 8970000   0.79949345   -0.2269588   0.64265996    35416.424 
 8980000   0.80088344  -0.30044554   0.63446047    35416.424 
 8990000   0.79700807  -0.19759313   0.62715646    35416.424 
 9000000   0.80080672  -0.31281314   0.64154084    35416.424 
 9010000   0.79095462  -0.33601833   0.62294394    35416.424 
 9020000   0.80412731  -0.26960799   0.64160619    35416.424 
 9030000   0.80320597  -0.24945201    0.6386304    35416.424 
 9040000   0.80655902  -0.25887937   0.64180984    35416.424 
 9050000   0.80327142  -0.25510932   0.64469168    35416.424 
 9060000   0.79521935  -0.26539439   0.62488628    35416.424 
 9070000   0.79434804  -0.32119604   0.62114103    35416.424 
 9080000   0.79597517  -0.24962652   0.63852186    35416.424 
 9090000   0.79878824  -0.30415399   0.62548622    35416.424 
 9100000   0.80499744  -0.22026914   0.64340749    35416.424 
 9110000   0.80088716  -0.22232671   0.63205295    35416.424 
 9120000   0.80082056  -0.26794366   0.63015915    35416.424 
 9130000   0.80002182  -0.21776785    0.6330879    35416.424 
 9140000   0.80557773  -0.35315264   0.63744532    35416.424 
 9150000   0.80471758  -0.14998659   0.64339423    35416.424 
 9160000   0.80877365  -0.25716757   0.64232911    35416.424 
 9170000   0.79596387  -0.27739824   0.62180407    35416.424 
 9180000   0.79820285  -0.32740351   0.61807074    35416.424 
 9190000    0.8012305  -0.22924686   0.63750352    35416.424 
 9200000   0.79794511  -0.22370349   0.63205231    35416.424 
 9210000   0.80267202  -0.21351941   0.63731823    35416.424 
 9220000   0.79667951  -0.30592487   0.61942735    35416.424 
 9230000   0.79624449  -0.24286431   0.62968923    35416.424 
 9240000   0.78903559  -0.26569184   0.61606903    35416.424 
 9250000   0.80075313  -0.25697296   0.63078048    35416.424 
 9260000   0.80346458  -0.27338192   0.63357395    35416.424 
 9270000   0.80402796  -0.31007027   0.63577462    35416.424 
 9280000   0.80313856  -0.25715268   0.64133469    35416.424 
 9290000   0.79289877  -0.17083642   0.61209967    35416.424 
 9300000   0.79336164  -0.25307568    0.6206883    35416.424 
 9310000   0.79958681  -0.28886642   0.63272646    35416.424 
 9320000   0.79287507   -0.2684119   0.61958247    35416.424 
 9330000   0.80653038  -0.25800224   0.63845539    35416.424 
 9340000   0.79498662  -0.17868269   0.62572713    35416.424 
 9350000   0.80404491  -0.36450409   0.63373543    35416.424 
 9360000   0.79993001  -0.30973932   0.62596043    35416.424 
 9370000   0.80182288  -0.28339208   0.62031163    35416.424 
 9380000   0.79913436  -0.31554357   0.61715572    35416.424 
 9390000    0.7941171  -0.28802254   0.60803213    35416.424 
 9400000   0.80690165  -0.21639138   0.63555095    35416.424 
 9410000   0.79734036     -0.29952   0.61634022    35416.424 
 9420000   0.80020627  -0.33604812   0.61201476    35416.424 
 9430000   0.79394911  -0.25118016   0.61750089    35416.424 
 9440000   0.80151054  -0.22293438   0.62497474    35416.424 
 9450000   0.80524375  -0.23842021   0.62989721    35416.424 
 9460000   0.79242547  -0.29939262   0.60880946    35416.424 
 9470000   0.78981628  -0.26987101   0.60707861    35416.424 
 9480000   0.80005842  -0.22739272   0.62577536    35416.424 
 9490000   0.79926758  -0.22833736   0.61998482    35416.424 
 9500000    0.8062535  -0.14920335   0.64068394    35416.424 
 9510000   0.79882292  -0.27681996    0.6270579    35416.424 
 9520000   0.79767811  -0.25119958   0.62588343    35416.424 
 9530000   0.80153063  -0.21645378   0.62753793    35416.424 
 9540000   0.79948292  -0.24641893   0.62617811    35416.424 
 9550000   0.81407217  -0.25480242   0.64270506    35416.424 
 9560000    0.7955533  -0.28988522   0.62511929    35416.424 
 9570000    0.8019214  -0.30184064   0.62591041    35416.424 
 9580000   0.79694766  -0.21524383    0.6214609    35416.424 
 9590000   0.80617172  -0.22300686   0.63614936    35416.424 
 9600000   0.79787133  -0.30289387    0.6195079    35416.424 
 9610000   0.80291494  -0.29726657   0.62969032    35416.424 
 9620000   0.79744157  -0.17174668   0.62102881    35416.424 
 9630000   0.80568731  -0.24856819   0.63376246    35416.424 
 9640000   0.79535001  -0.30672642   0.62358379    35416.424 
 9650000   0.79999025  -0.26496599   0.62552972    35416.424 
 9660000   0.79940356  -0.22703933   0.62916392    35416.424 
 9670000   0.79888064  -0.22391911   0.62366347    35416.424 
 9680000   0.79914636  -0.29965341    0.6140233    35416.424 
 9690000   0.80167855  -0.18841605   0.63376713    35416.424 
 9700000   0.80138623  -0.30963851   0.63240728    35416.424 
 9710000   0.80084442  -0.26091915   0.62637013    35416.424 
 9720000   0.79962851  -0.21263035   0.61843826    35416.424 
 9730000    0.7946173  -0.28066028   0.60396438    35416.424 
 9740000   0.80223233  -0.31360685   0.62307326    35416.424 
 9750000   0.80098069  -0.29178742   0.62380033    35416.424 
 9760000   0.79483616  -0.27463718   0.61316488    35416.424 
 9770000   0.79921926  -0.33005359   0.61307137    35416.424 
 9780000   0.80065482  -0.17933901   0.62169002    35416.424 
 9790000   0.79950656  -0.33034671   0.61131648    35416.424 
 9800000   0.79468393  -0.26201315   0.60781112    35416.424 
 9810000   0.80411939  -0.20103836   0.62291633    35416.424 
 9820000   0.79617826  -0.25590784    0.6124307    35416.424 
 9830000   0.80441493  -0.24797983    0.6328478    35416.424 
 9840000   0.79816184  -0.17174225   0.61717258    35416.424 
 9850000   0.80301979   -0.2045403   0.62237479    35416.424 
 9860000   0.80077203  -0.18495334   0.62292404    35416.424 
 9870000   0.79927793  -0.26992433   0.61247241    35416.424 
 9880000   0.79954991  -0.26599647   0.62540395    35416.424 
 9890000   0.79614918  -0.27875262   0.61545199    35416.424 
 9900000   0.79997345  -0.26121871   0.62060445    35416.424 
 9910000   0.79403652   -0.2844599   0.61538939    35416.424 
 9920000   0.80380675  -0.23046058   0.63185634    35416.424 
 9930000   0.80211466  -0.26535567   0.61274388    35416.424 
 9940000   0.80092486   -0.1772037   0.62383915    35416.424 
 9950000   0.79212348  -0.27865655   0.60742769    35416.424 
 9960000   0.79900783  -0.22386301   0.61981801    35416.424 
 9970000   0.79531429  -0.24841481   0.60499903    35416.424 
 9980000   0.80565131  -0.39799116   0.62104243    35416.424 
 9990000    0.7998642  -0.25442386   0.61434207    35416.424 
10000000   0.80685321  -0.24749354   0.62407025    35416.424 
10010000   0.79977152  -0.23779956   0.61598237    35416.424 
10020000   0.80008175  -0.22239812   0.62746617    35416.424 
10030000   0.79373366   -0.2728673   0.60381859    35416.424 
10040000   0.80138305  -0.27399756   0.61599564    35416.424 
10050000   0.79792669  -0.26055314   0.61786049    35416.424 
10060000   0.79682613  -0.25397194   0.61810116    35416.424 
10070000   0.79266418  -0.26317512   0.60710484    35416.424 
10080000   0.79694975  -0.18829528   0.61648239    35416.424 
10090000   0.80187208  -0.28451345   0.62049355    35416.424 
10100000   0.80150486  -0.28115367   0.62067591    35416.424 
10110000   0.79996091  -0.24986025   0.61607375    35416.424 
10120000   0.79665475  -0.27941322   0.60804171    35416.424 
10130000   0.79448034  -0.26922706   0.60970169    35416.424 
10140000   0.80088275  -0.23486019   0.61035826    35416.424 
10150000   0.79878183   -0.2424941   0.61632645    35416.424 
10160000   0.79668881  -0.23588722   0.60645108    35416.424 
10170000   0.79881723  -0.27278299   0.61477886    35416.424 
10180000   0.79683964  -0.20215548   0.61489093    35416.424 
10190000   0.80335817  -0.25940247   0.62623654    35416.424 
10200000   0.80139024  -0.33690126   0.61706755    35416.424 
10210000   0.80262993  -0.22214678   0.61073541    35416.424 
10220000   0.79201452  -0.37152862   0.60049267    35416.424 
10230000    0.7982846  -0.20406509   0.61542051    35416.424 
10240000   0.80527812  -0.34588758   0.61960449    35416.424 
10250000   0.80505969   -0.2267539     0.623195    35416.424 
10260000   0.80260328  -0.29899467   0.61385478    35416.424 
10270000    0.7958957  -0.22899132   0.61084718    35416.424 
10280000   0.80314885  -0.29581636   0.61410807    35416.424 
10290000   0.79765154  -0.24169352   0.61437989    35416.424 
10300000   0.79728271  -0.24384857   0.61743292    35416.424 
10310000   0.79854092  -0.26614625   0.61993503    35416.424 
10320000   0.80017573  -0.26786941   0.61695992    35416.424 
10330000   0.80310434  -0.29520314   0.61691128    35416.424 
10340000   0.80122217  -0.21429381   0.61168492    35416.424 
10350000   0.80009115  -0.28660102   0.61018706    35416.424 
10360000    0.7958701  -0.27019331   0.60982781    35416.424 
10370000   0.80366069  -0.26028747   0.62624663    35416.424 
10380000   0.80320378  -0.29471495   0.60982014    35416.424 
10390000   0.80542308  -0.27612764   0.63011773    35416.424 
10400000   0.79987532  -0.26807911   0.60524389    35416.424 
10410000   0.80409238  -0.28938563   0.62912253    35416.424 
10420000   0.79584324  -0.32627836   0.60743563    35416.424 
10430000   0.80257955  -0.26382266   0.61652621    35416.424 
10440000   0.80046235  -0.19802762   0.62213653    35416.424 
10450000   0.79739584  -0.25355689   0.60712478    35416.424 
10460000   0.79332234  -0.35366872   0.59969459    35416.424 
10470000   0.79805423  -0.26613098   0.60986828    35416.424 
10480000   0.80224881  -0.28415068   0.60994679    35416.424 
10490000   0.81072827  -0.34004192   0.62602084    35416.424 
10500000   0.79751171  -0.29881013   0.61891649    35416.424 
10510000   0.80323047   -0.2865572   0.62138264    35416.424 
10520000   0.81164831  -0.30032887   0.62780453    35416.424 
10530000   0.80126224  -0.26713815   0.61334761    35416.424 
10540000   0.80081395  -0.21845497   0.61180685    35416.424 
10550000   0.79979856  -0.24900953   0.61563354    35416.424 
10560000   0.79975795  -0.27044766   0.61978862    35416.424 
10570000   0.79777324  -0.22419969   0.60771676    35416.424 
10580000   0.79510851  -0.24729247   0.60292159    35416.424 
10590000   0.80131313  -0.28676639   0.61244696    35416.424 
10600000   0.80329344  -0.23318751   0.61171074    35416.424 
10610000   0.80095506  -0.26035256   0.62255589    35416.424 
10620000   0.80114613  -0.19546706   0.61450016    35416.424 
10630000    0.7962833  -0.27742107   0.60700377    35416.424 
10640000    0.8015574  -0.29190473   0.62126401    35416.424 
10650000   0.80589903  -0.17790526   0.62243425    35416.424 
10660000   0.80229458  -0.23783023   0.61960721    35416.424 
10670000   0.79568045   -0.3391638   0.60317043    35416.424 
10680000    0.8040484  -0.27308025   0.62364248    35416.424 
10690000    0.7979283  -0.33542337   0.61850394    35416.424 
10700000   0.80105857  -0.30988218   0.61995768    35416.424 
10710000   0.79968795  -0.31939721   0.61422943    35416.424 
10720000   0.79755878  -0.26658615   0.61210938    35416.424 
10730000    0.8045374  -0.27122751   0.63071073    35416.424 
10740000   0.79948273  -0.27009467   0.61895407    35416.424 
10750000   0.80249361  -0.23719691   0.61181521    35416.424 
10760000   0.80621419  -0.28179377   0.62624221    35416.424 
10770000   0.79334388  -0.29468322   0.59444849    35416.424 
10780000   0.80295064  -0.29523805   0.62329089    35416.424 
10790000   0.80481411  -0.21428845   0.61976705    35416.424 
10800000   0.80058186  -0.24163649   0.60650261    35416.424 
10810000   0.80023473  -0.25128568   0.62022927    35416.424 
10820000   0.79556354  -0.25400699   0.59369182    35416.424 
10830000   0.79837816  -0.21975197   0.61297392    35416.424 
10840000   0.80242533   -0.2576799   0.60660403    35416.424 
10850000   0.80783117  -0.23498669   0.61823296    35416.424 
10860000   0.79640625  -0.28366491   0.60000003    35416.424 
10870000   0.79822083    -0.266158     0.598589    35416.424 
10880000   0.79034874  -0.30673908   0.59899835    35416.424 
10890000   0.79955889  -0.30420351   0.60060428    35416.424 
10900000   0.79857915  -0.23934377   0.61461521    35416.424 
10910000   0.79447019  -0.20146314   0.60352527    35416.424 
10920000   0.80346514  -0.34211893   0.60780554    35416.424 
10930000   0.80095142  -0.24328032   0.61109613    35416.424 
10940000   0.79943039  -0.23244233   0.60918587    35416.424 
10950000    0.8051552  -0.23677986   0.61822806    35416.424 
10960000   0.79928785  -0.24982961   0.60890591    35416.424 
10970000   0.80005473  -0.23287701   0.60499767    35416.424 
10980000   0.80616659  -0.20673335   0.61549683    35416.424 
10990000   0.79779385  -0.23959939   0.61028664    35416.424 
11000000   0.79409054  -0.29576515   0.59555645    35416.424 
11010000   0.80019852   -0.2227025   0.61072508    35416.424 
11020000   0.80222423  -0.28869586    0.6106152    35416.424 
11030000   0.80403469  -0.29616922   0.60574412    35416.424 
11040000   0.79813855  -0.31228336   0.60250763    35416.424 
11050000   0.80323098  -0.31160965   0.60835062    35416.424 
11060000   0.80209176  -0.23331526   0.61497909    35416.424 
11070000   0.79707473  -0.22639529   0.59660616    35416.424 
11080000   0.79168588  -0.15133902    0.5964275    35416.424 
11090000   0.80687066  -0.25910258   0.62597874    35416.424 
11100000   0.79876481  -0.30115098   0.61213036    35416.424 
11110000   0.79787331  -0.21206559   0.61046467    35416.424 
11120000    0.8050812  -0.28093667   0.61204847    35416.424 
11130000   0.79903968  -0.23585994    0.5988293    35416.424 
11140000   0.79540972  -0.22218516   0.59572441    35416.424 
11150000   0.80254671  -0.25981137   0.60138885    35416.424 
11160000   0.80037206  -0.33838205   0.59716673    35416.424 
11170000   0.79898965  -0.34362187   0.60927566    35416.424 
11180000   0.79593869   -0.3763062   0.59859375    35416.424 
11190000   0.79803847  -0.24369857   0.61119007    35416.424 
11200000   0.80195397  -0.23742465   0.59967911    35416.424 
11210000   0.79858534  -0.32499962   0.59562032    35416.424 
11220000   0.79914262  -0.23415876   0.60081117    35416.424 
11230000   0.79407077  -0.22903804   0.59188455    35416.424 
11240000   0.80163835   -0.3156232   0.60324129    35416.424 
11250000   0.80353499  -0.20918788   0.61386197    35416.424 
11260000   0.79972019  -0.22367268   0.60802097    35416.424 
11270000    0.8006311  -0.26547849   0.60775957    35416.424 
11280000   0.80313606  -0.17474928   0.60749791    35416.424 
11290000   0.80370484  -0.27706198   0.60669281    35416.424 
11300000   0.80382004  -0.27130569   0.60348439    35416.424 
11310000   0.80368985  -0.28013014   0.59650298    35416.424 
11320000   0.80171202  -0.27727455   0.60737221    35416.424 
11330000   0.79775213  -0.26200016   0.59168577    35416.424 
11340000   0.80237902  -0.20024827   0.60899308    35416.424 
11350000   0.79785168  -0.23467278   0.60782826    35416.424 
11360000   0.80245918  -0.32003289   0.60340099    35416.424 
11370000   0.80557838  -0.31723514   0.60861471    35416.424 
11380000   0.80537585  -0.21206894   0.61304103    35416.424 
11390000   0.80008977  -0.27073972   0.59216598    35416.424 
11400000   0.80046228  -0.31913152   0.59771538    35416.424 
11410000   0.80048214  -0.19542109   0.60336968    35416.424 
11420000   0.79829017   -0.2840498   0.59716597    35416.424 
11430000   0.79363999  -0.21307465   0.59932034    35416.424 
11440000   0.80151046   -0.2673233   0.60280651    35416.424 
11450000   0.80388595  -0.22742601   0.59873659    35416.424 
11460000   0.79354117  -0.27985807   0.59877196    35416.424 
11470000   0.79805664  -0.26846097   0.59567422    35416.424 
11480000   0.79581167  -0.33382462   0.59356665    35416.424 
11490000   0.80643454  -0.30999111   0.61555295    35416.424 
11500000   0.79864957  -0.21368035   0.59879583    35416.424 
11510000   0.79835084  -0.29149508   0.59669957    35416.424 
11520000   0.80007536  -0.26107557   0.60629561    35416.424 
11530000   0.80384716  -0.28201832   0.60796188    35416.424 
11540000   0.80650096  -0.18457465   0.61235971    35416.424 
11550000   0.79583784  -0.24407108   0.59254025    35416.424 
11560000   0.79865122  -0.36115249   0.60070859    35416.424 
11570000   0.80460056   -0.3270688   0.61021201    35416.424 
11580000   0.80009338  -0.20525049   0.60877369    35416.424 
11590000   0.79699876   -0.2052491   0.60153364    35416.424 
11600000   0.79909366   -0.2609469   0.60682351    35416.424 
11610000   0.79428632  -0.26920754   0.59405306    35416.424 
11620000   0.80398583  -0.29135955   0.60193483    35416.424 
11630000   0.79944769  -0.28885256    0.5978362    35416.424 
11640000   0.80227584  -0.36730777   0.60819873    35416.424 
11650000   0.80298785  -0.29700201   0.60437283    35416.424 
11660000   0.79961176  -0.25308367   0.60328391    35416.424 
11670000   0.79250962  -0.27102185   0.57974873    35416.424 
11680000   0.80213808  -0.21918559   0.60007602    35416.424 
11690000    0.7943888  -0.26978594   0.59539231    35416.424 
11700000   0.80212324  -0.28758584   0.59978839    35416.424 
11710000    0.7966737  -0.22185887   0.59444718    35416.424 
11720000   0.80336908  -0.27322179   0.59443419    35416.424 
11730000   0.79820136  -0.25061135   0.59945579    35416.424 
11740000    0.8038992  -0.30099568   0.60977828    35416.424 
11750000   0.79765527  -0.24514321   0.59900322    35416.424 
11760000   0.79445331  -0.35629976   0.59120509    35416.424 
11770000   0.80534668  -0.30573199   0.60176341    35416.424 
11780000   0.80422894  -0.28024669    0.6051526    35416.424 
11790000   0.79533892  -0.34669999   0.58994121    35416.424 
11800000   0.79543242  -0.29444125   0.59408852    35416.424 
11810000   0.80417842  -0.25451471   0.60690329    35416.424 
11820000   0.80011583  -0.27797105   0.59212898    35416.424 
11830000   0.80638952  -0.22585349   0.61544729    35416.424 
11840000   0.80109304  -0.26308923    0.6016854    35416.424 
11850000   0.79233413  -0.28365112   0.59351444    35416.424 
11860000   0.80056642   -0.2427871   0.59614445    35416.424 
11870000    0.8004023  -0.22751039    0.6036607    35416.424 
11880000   0.80366922  -0.21549558   0.61104198    35416.424 
11890000   0.80252843  -0.28342744   0.60468407    35416.424 
11900000   0.79683623  -0.33634823   0.59897537    35416.424 
11910000   0.79951277    -0.225016   0.60736617    35416.424 
11920000   0.79689187  -0.23044568   0.60659056    35416.424 
11930000   0.79939736  -0.27238633   0.59868417    35416.424 
11940000    0.7998591   -0.2139885   0.59756459    35416.424 
11950000   0.80022734  -0.22250792   0.59714286    35416.424 
11960000   0.80087366  -0.25592895   0.59907777    35416.424 
11970000   0.80398793  -0.25417178    0.6096856    35416.424 
11980000   0.80451283  -0.24910429   0.60502231    35416.424 
11990000   0.79948422   -0.3020017   0.59913199    35416.424 
12000000   0.79889917  -0.24857241   0.59615796    35416.424 
Loop time of 48749.1 on 216 procs for 5000000 steps with 28900 atoms

Performance: 44308.517 tau/day, 102.566 timesteps/s
99.9% CPU use with 216 MPI tasks x 1 OpenMP threads

MPI task timing breakdown:
Section |  min time  |  avg time  |  max time  |%varavg| %total
---------------------------------------------------------------
Pair    | 498.57     | 671.66     | 1006.9     | 414.4 |  1.38
Bond    | 6.0984     | 10.199     | 17.283     |  66.0 |  0.02
Kspace  | 43212      | 43721      | 44243      | 109.6 | 89.69
Neigh   | 758.53     | 783.56     | 818.69     |  48.6 |  1.61
Comm    | 1096.7     | 1473.6     | 1918.5     | 414.6 |  3.02
Output  | 2.7251     | 2.7278     | 2.7687     |   0.2 |  0.01
Modify  | 1485.5     | 1714       | 1979.6     | 274.7 |  3.52
Other   |            | 372.1      |            |       |  0.76

Nlocal:    133.796 ave 211 max 100 min
Histogram: 26 74 37 26 14 5 15 9 6 4
Nghost:    974.319 ave 1320 max 820 min
Histogram: 42 40 32 37 24 13 13 7 4 4
Neighs:    5102.36 ave 11236 max 2911 min
Histogram: 55 66 30 19 8 15 10 3 4 6

Total # of neighbors = 1102110
Ave neighs/atom = 38.1353
Ave special neighs/atom = 0.602076
Neighbor list builds = 672302
Dangerous builds = 0
System init for write_restart ...
PPPM initialization ...
  using 12-bit tables for long-range coulomb (src/kspace.cpp:332)
  G vector (1/distance) = 1.16623
  grid = 96 96 96
  stencil order = 5
  estimated absolute RMS force accuracy = 0.000109911
  estimated relative force accuracy = 0.000109911
  using double precision FFTW3
  3d grid and FFT values/proc = 9261 4608
WARNING: Neighbor exclusions used with KSpace solver may give inconsistent Coulombic energies (src/neighbor.cpp:486)
Neighbor list info ...
  update every 1 steps, delay 0 steps, check yes
  max neighbors/atom: 2000, page size: 100000
  master list distance cutoff = 2.8
  ghost atom cutoff = 2.8
  binsize = 1.4, bins = 24 24 24
  2 neighbor lists, perpetual/occasional/extra = 2 0 0
  (1) pair lj/cut, perpetual
      attributes: half, newton on
      pair build: half/bin/newton
      stencil: half/bin/3d/newton
      bin: standard
  (2) pair coul/long, perpetual, skip from (1)
      attributes: half, newton on
      pair build: skip
      stencil: none
      bin: none
Total wall time: 15:05:31
