950
Atoms. Timestep: 0
H 1.404300 14.423200 3.881520
H 1.412870 14.419500 3.870790
H 2.393160 14.553900 3.953190
H 2.401440 14.549000 3.948510
H 3.390010 14.678500 4.026230
H 3.382030 14.684700 4.024850
H 4.378590 14.808000 4.103960
H 4.370890 14.815400 4.096520
H 5.367160 14.937500 4.181680
H 5.359760 14.946200 4.168180
H 2.287750 15.926900 2.902480
H 2.302030 15.931400 2.909560
H 1.620360 15.252300 3.291780
H 1.608410 15.250900 3.294100
H 3.260310 16.270100 2.811600
H 3.275230 16.274800 2.826560
H 2.846020 15.305000 3.467900
H 2.834890 15.305800 3.463670
H 3.823760 15.436600 3.535330
H 3.834600 15.434500 3.545620
H 4.279180 16.190400 3.065010
H 4.265480 16.188500 3.045810
H 5.044880 15.701000 3.561020
H 5.033930 15.703900 3.542360
H 2.498570 13.180900 5.003890
H 2.500850 13.166600 4.987460
H 3.503740 13.099300 5.238100
H 3.504800 13.082300 5.225910
H 1.730120 13.665500 4.507350
H 1.735150 13.656100 4.491450
H 2.945430 13.922600 4.506850
H 2.940300 13.932800 4.514370
H 3.929170 14.063600 4.586040
H 3.934010 14.052100 4.584570
H 4.476300 13.442400 5.147220
H 4.478000 13.425700 5.142910
H 5.159670 14.104700 4.760690
H 5.155650 14.118500 4.755610
H 4.530870 15.142300 29.233700
H 4.538280 15.139900 29.227500
H 2.492600 16.916100 28.397200
H 2.507360 16.919700 28.385800
H 2.883510 15.957800 28.457300
H 2.871870 15.955300 28.467500
H 3.556300 16.536600 28.907600
H 3.617930 15.306000 28.773600
H 3.626880 15.306300 28.765400
H 3.568750 16.537100 28.898800
H 4.396130 16.128200 29.283900
H 4.385800 16.130100 29.290700
H 5.373500 15.503100 29.719800
H 5.366060 15.507800 29.724300
H 5.070230 16.711400 29.730900
H 5.081370 16.707500 29.725300
H 5.908750 16.298600 30.110400
H 5.899720 16.304800 30.114000
H 4.619890 17.940100 7.630710
H 4.657370 17.954900 7.631880
H 4.226090 19.889400 7.363660
H 4.210470 19.877600 7.350070
H 4.406740 18.868700 7.225590
H 4.434090 18.883700 7.232700
H 4.792810 17.340500 8.456890
H 4.836100 17.351900 8.454260
H 4.879160 17.230800 9.482750
H 4.922400 17.236200 9.479480
H 4.663620 18.261300 8.832760
H 4.674450 18.199500 9.342430
H 4.544820 18.554200 8.416410
H 4.290120 19.936700 8.600480
H 4.265040 20.137000 9.061790
H 4.340110 19.522900 8.276090
H 4.318640 20.080200 9.589760
H 4.462610 19.027200 8.221980
H 4.469740 19.168300 9.202110
H 4.491130 19.170800 9.211260
H 4.089110 20.702600 7.989690
H 4.083680 20.696400 7.970810
H 4.059850 21.105300 8.943040
H 4.060330 21.105800 8.921470
H 4.692130 18.404800 9.822040
H 4.855810 17.640100 10.433400
H 4.893140 17.638900 10.432800
H 4.729010 18.459000 11.054100
H 4.756160 18.452100 11.058900
H 4.324880 20.386600 10.790600
H 4.319600 20.396500 10.773500
H 4.599380 18.813600 10.128100
H 4.394670 19.782400 9.987800
H 4.532750 19.467900 11.178600
H 4.548170 19.457800 11.189800
H 4.519650 19.314300 10.200500
H 4.146680 20.996000 9.947320
H 4.146150 20.989600 9.968260
H 2.581730 17.930900 28.581600
H 2.599220 17.934300 28.570100
H 3.411230 17.524400 28.964700
H 3.426600 17.525400 28.955200
H 4.253990 17.116500 29.340300
H 4.240730 17.117900 29.347800
H 4.095660 18.105700 29.404900
H 4.111840 18.104800 29.396600
H 3.134470 18.729800 28.960700
H 3.115400 18.727900 28.971400
H 3.950590 19.093500 29.462000
H 3.969690 19.093000 29.453000
H 6.000610 17.313200 30.294700
H 4.939220 17.695800 29.781700
H 4.925160 17.699200 29.788000
H 5.624460 18.275200 30.223200
H 5.609590 18.280500 30.228100
H 5.988860 17.319700 30.298400
H 4.881100 18.926600 29.915100
H 4.863530 18.929700 29.922000
H 8.493530 0.947306 7.255290
H 9.374410 1.305830 7.564480
H 8.899450 1.914270 6.594810
H 8.026730 1.369610 6.478220
H 9.788490 2.086670 7.096590
H 10.455600 1.840620 7.849110
H 9.841200 0.883525 8.341550
H 10.722100 1.242050 8.650740
H 9.422990 4.302090 11.468900
H 7.556460 4.875990 11.036400
H 6.776420 5.294820 11.573100
H 8.525170 4.512620 10.998300
H 10.009400 4.300800 12.322200
H 7.386220 5.474090 13.184400
H 7.518510 5.188910 12.235000
H 6.394060 5.656890 12.464500
H 8.260600 5.083000 12.897000
H 9.134980 4.691900 12.609600
H 8.392890 4.797810 11.947600
H 10.127100 4.509100 13.329500
H 6.511850 5.865190 13.471800
H 7.098200 5.863900 14.325000
H 8.128310 5.368180 13.846300
H 7.996030 5.653370 14.795700
H 9.002690 4.977090 13.558900
H 8.964740 5.290010 14.757500
H 9.744780 4.871180 14.220900
H 10.402500 5.960550 31.155500
H 10.395500 5.938620 31.144400
H 11.165200 5.793270 30.467500
H 11.164500 5.810140 30.471000
H 10.784000 7.181640 5.542370
H 10.783100 7.193360 5.540050
H 10.762200 7.190400 5.525620
H 10.257000 7.834940 4.936230
H 10.257900 7.852440 4.938690
H 10.243400 7.856760 4.926680
H 9.752380 8.760420 4.807470
H 9.754310 8.730810 4.807350
H 9.758460 8.751000 4.816070
H 9.420720 9.659240 5.199920
H 9.410570 9.629200 5.190280
H 9.418610 9.648270 5.205060
H 9.879060 9.184710 5.953850
H 10.056300 8.748590 5.770730
H 10.049700 8.751390 5.762240
H 10.302300 8.287580 5.826820
H 10.568600 7.969770 6.132720
H 10.554600 7.966390 6.121320
H 9.329430 10.303800 6.001420
H 9.317890 10.289400 5.982400
H 9.337270 10.312400 5.998870
H 11.169700 6.939890 6.443780
H 11.377200 7.191060 7.452430
H 11.356900 7.172360 7.435170
H 11.378800 7.188540 7.449380
H 11.193400 6.950360 6.459030
H 11.194000 6.945970 6.463360
H 10.852000 7.957360 7.076090
H 10.770800 7.843090 6.590390
H 10.866400 7.967360 7.087390
H 10.347500 8.740220 6.717410
H 10.354100 8.746180 6.725400
H 10.816000 8.295730 7.480980
H 10.651900 8.743770 7.680060
H 10.644400 8.733350 7.671790
H 10.347100 8.742370 6.717020
H 10.392800 9.192860 7.608010
H 10.139600 9.522590 7.318070
H 10.139500 9.518350 7.312720
H 9.842170 9.527380 6.357940
H 9.924330 9.637350 6.844440
H 9.841770 9.525000 6.363410
H 9.501110 10.534500 6.971460
H 9.514820 10.542000 6.991770
H 9.524400 10.544800 6.990250
H 9.931960 10.294300 7.908420
H 9.911130 10.298800 7.892460
H 9.925090 10.299000 7.910740
H 11.284500 7.851250 8.244550
H 11.289600 7.844090 8.245740
H 11.273400 7.825500 8.234120
H 10.940800 8.749640 8.627470
H 10.949800 8.741360 8.634720
H 10.941700 8.724320 8.626570
H 10.450700 9.627980 8.507350
H 10.450300 9.639920 8.512110
H 10.438100 9.645500 8.498600
H 8.557400 11.466500 13.036800
H 8.565450 11.468800 13.047300
H 9.097130 10.617800 13.282200
H 9.102890 10.616900 13.286600
H 9.780730 11.351700 13.260400
H 9.771590 11.355800 13.259300
H 10.003600 10.158700 13.511800
H 9.998300 10.164600 13.515300
H 10.732700 11.161000 13.455100
H 10.742400 11.151800 13.448500
H 11.026200 10.217100 13.662700
H 11.019400 10.228300 13.673700
H 10.346900 7.197770 31.108400
H 10.338600 7.176020 31.103900
H 11.040200 6.801810 30.506200
H 11.039100 6.784530 30.507100
H 10.915900 7.793470 30.541300
H 10.912900 7.775800 30.546700
H 9.971760 9.395760 31.277300
H 9.958520 9.372470 31.281600
H 10.222600 8.189430 31.143600
H 10.212500 8.167290 31.143500
H 11.429200 9.626390 29.927200
H 11.430400 9.612980 29.948900
H 10.786800 8.767070 30.586300
H 10.791500 8.785130 30.576500
H 11.487200 8.375580 29.989400
H 11.484800 8.389160 29.974300
H 10.660700 9.758340 30.625800
H 10.667200 9.776790 30.611700
H 9.764360 6.576250 31.661200
H 9.441030 7.535290 31.879300
H 9.458380 7.562840 31.891500
H 9.777980 6.602080 31.675400
H 9.529310 8.585400 31.745800
H 9.512100 8.558780 31.740400
H 9.484890 12.288600 13.040600
H 9.496920 12.286400 13.046200
H 8.523730 12.483400 12.844900
H 8.535270 12.486300 12.858100
H 10.174800 13.021200 13.020000
H 10.159400 13.026600 13.017800
H 10.446100 12.093800 13.236400
H 10.458600 12.086500 13.234200
H 11.136400 12.821300 13.208100
H 11.120500 12.831800 13.213500
H 9.020430 13.396600 12.769700
H 9.005150 13.395800 12.757900
H 9.872660 13.959400 12.799100
H 9.890940 13.955900 12.805800
H 10.893800 14.023100 12.957500
H 10.913500 14.014300 12.956600
H 11.407200 11.899100 13.432200
H 11.420200 11.886600 13.422300
H 10.994500 16.783500 27.231200
H 10.773700 16.199000 28.056700
H 10.908700 15.974500 29.058400
H 11.505100 16.758600 28.886200
H 11.363400 16.170200 29.967700
H 7.107440 18.084500 21.744600
H 7.079110 18.091400 21.717200
H 8.027680 17.610200 21.753400
H 7.994050 17.607000 21.728300
H 9.059720 17.654100 21.683600
H 9.026910 17.640100 21.665000
H 8.236270 18.577100 21.606600
H 8.730510 18.589100 21.557900
H 9.927000 18.204400 21.553800
H 9.900930 18.181700 21.544300
H 6.492590 19.974500 21.520800
H 7.460210 19.763900 21.476800
H 6.545550 18.949900 21.659400
H 6.527240 18.963500 21.634700
H 7.495210 19.247000 21.559600
H 7.756610 18.814800 21.584000
H 6.486310 19.989600 21.502900
H 7.703800 20.214000 21.412800
H 8.434110 19.538200 21.450700
H 8.444870 19.544100 21.459800
H 9.185930 18.874300 21.506800
H 9.408010 19.312600 21.424600
H 9.394520 19.841200 21.360000
H 9.111610 20.261600 21.317400
H 8.137710 20.487300 21.343500
H 8.653460 20.511100 21.313100
H 10.341000 20.113000 21.266600
H 10.344200 20.138400 21.260200
H 10.381900 19.086900 21.398500
H 10.397100 19.113700 21.398900
H 7.841310 21.436400 21.236300
H 7.830020 21.434200 21.236100
H 6.967290 20.894700 21.357000
H 6.962730 20.883800 21.365900
H 8.874160 21.469400 21.173000
H 8.862050 21.478100 21.166300
H 9.789110 20.985000 21.184100
H 9.782300 21.003800 21.175100
H 11.511900 17.571400 26.803000
H 11.548000 17.163100 27.972600
H 11.332600 23.390700 29.431900
H 11.439600 26.214700 29.313200
H 10.748800 22.924400 30.148700
H 10.097400 22.982900 30.951300
H 10.622500 23.903500 30.308800
H 10.024500 24.216400 31.046800
H 11.094200 24.569600 29.731000
H 10.496200 24.882500 30.468900
H 9.898210 25.195400 31.206900
H 10.967900 25.548600 29.891100
H 10.369900 25.861500 30.629000
H 10.895000 26.782100 29.986500
H 10.243600 26.840600 30.789100
H 9.552840 23.550300 31.624600
H 9.300220 25.508400 31.944800
H 9.261050 24.474700 31.988300
H 9.659850 26.374300 31.505900
H 7.198560 32.339700 7.413990
H 7.404160 33.130400 6.778060
H 8.079440 32.698200 7.723180
H 7.465030 31.741100 8.215620
H 8.960320 33.056800 8.032360
H 8.546240 32.275900 8.500250
H 8.132160 31.495100 8.968140
H 9.021190 31.667500 9.469920
H 9.427120 32.634400 8.809440
H 10.516500 32.983100 9.286670
H 9.893920 32.212100 9.586510
H 7.890220 32.375900 14.868500
H 7.867340 32.419200 14.874800
H 8.873210 32.506800 14.645800
H 8.896730 32.472600 14.646000
H 9.857260 32.605300 14.952100
H 9.877510 32.582900 14.958800
H 7.127660 32.318700 15.566400
H 7.109190 32.366000 15.577900
H 7.796850 32.454500 16.605200
H 6.801890 32.361500 16.566500
H 6.813390 32.316400 16.552900
H 7.964180 32.421100 16.104800
H 8.848710 32.498000 15.644600
H 9.324530 32.576400 15.798000
H 8.791800 32.547600 16.643800
H 8.800690 32.523500 16.643200
H 8.329570 32.483400 15.759300
H 9.685220 32.600400 16.183000
H 10.569800 32.677300 15.722800
H 10.781700 32.733600 16.721100
H 10.555800 32.688300 15.711700
H 10.788000 32.730500 16.733500
H 9.786760 32.640600 16.682400
H 7.916150 32.446500 17.103400
H 7.723860 32.464000 18.327600
H 7.726350 32.489900 18.335500
H 7.031620 32.369600 17.563500
H 7.027780 32.406800 17.575900
H 9.254030 32.611700 17.528300
H 8.704640 32.574300 18.640300
H 8.710400 32.588400 18.641800
H 8.752670 32.548900 17.641700
H 8.259070 32.518700 17.489700
H 9.711160 32.671100 18.417900
H 9.716260 32.675900 18.412800
H 9.637200 32.625800 17.181600
H 10.474400 32.729100 17.709700
H 10.473700 32.728200 17.719900
H 14.868100 4.245530 16.332800
H 13.958000 4.345230 16.816200
H 13.940100 4.329900 16.819800
H 14.847600 4.233250 16.330900
H 16.740800 3.943430 16.907300
H 15.892100 4.098020 16.370900
H 15.872700 4.091790 16.362900
H 16.755700 3.942220 16.920300
H 13.359200 4.314280 18.724300
H 13.354000 4.304130 18.731900
H 15.080700 4.156300 17.305900
H 15.067100 4.149640 17.303000
H 14.340000 4.210940 17.986800
H 14.349500 4.218730 17.985300
H 15.286600 4.066030 18.275000
H 15.293300 4.067080 18.279000
H 16.233200 3.921120 18.563200
H 16.237200 3.915420 18.572800
H 16.024500 4.004650 17.599700
H 16.013700 4.004730 17.591200
H 13.405700 4.370390 17.691500
H 13.393400 4.355850 17.698600
H 14.562100 4.129510 18.958400
H 14.559500 4.127330 18.958900
H 14.694500 4.036130 20.187100
H 14.700500 4.040260 20.187100
H 13.832500 4.188620 19.642800
H 13.830900 4.191940 19.637700
H 16.633100 3.802160 19.730300
H 16.628700 3.788930 19.741800
H 15.718600 3.888620 20.225200
H 15.506100 3.982420 19.247100
H 15.506000 3.977850 19.252100
H 15.725600 3.898810 20.219200
H 16.118900 11.536900 2.291230
H 16.126600 11.551100 2.290630
H 16.115600 11.524100 2.291900
H 16.328800 10.913900 3.081170
H 16.320300 10.891300 3.085370
H 16.331700 10.910500 3.087650
H 16.212000 10.642000 4.084370
H 16.219800 10.660500 4.079080
H 16.228900 10.666000 4.088420
H 15.682100 11.482100 3.968390
H 15.691300 11.500800 3.969350
H 15.248600 11.440200 5.644870
H 15.260500 11.455900 5.643530
H 15.838000 10.868900 5.025380
H 15.819700 10.842900 5.021210
H 15.263600 11.464800 5.647480
H 15.828800 10.858900 5.016970
H 16.286800 9.167590 13.660700
H 16.261400 9.148460 13.679500
H 15.923000 9.157350 14.657900
H 15.952000 9.174040 14.640400
H 16.945100 9.272060 14.705600
H 11.896700 10.776400 13.698800
H 11.887000 10.791800 13.714900
H 16.790500 9.315260 16.453100
H 16.826100 9.328730 16.432700
H 16.149400 9.233020 15.655000
H 16.116600 9.218400 15.673100
H 16.703800 11.503400 22.258400
H 16.729800 11.534600 22.235400
H 16.775100 10.632200 22.744200
H 15.840300 10.988000 22.903300
H 15.813000 10.965500 22.931600
H 16.804800 10.661200 22.716700
H 12.302400 7.001530 29.336900
H 12.313800 6.992820 29.353000
H 12.373300 8.024090 29.191200
H 12.384800 8.016310 29.214000
H 12.061500 8.975360 29.432100
H 12.053700 8.984850 29.407200
H 11.613400 7.384310 29.949800
H 11.860000 6.191170 29.805400
H 11.867400 6.179130 29.811800
H 11.609100 7.397500 29.939100
H 15.055900 13.204400 2.059940
H 15.043600 13.206500 2.053100
H 15.074100 13.237000 2.066630
H 15.652800 12.370700 1.916570
H 15.667300 12.401400 1.919280
H 15.647400 12.377200 1.912550
H 14.836500 13.090200 3.274130
H 14.616000 13.170400 3.731220
H 14.622400 13.162500 3.736430
H 14.586500 13.062700 4.242030
H 15.098600 12.771000 2.951690
H 15.104000 12.763400 2.956170
H 15.153600 12.335600 3.850290
H 15.152200 12.322300 3.852410
H 15.167300 12.346400 3.855080
H 15.748100 11.630100 3.468120
H 15.417300 12.373900 2.887180
H 15.636300 11.936300 3.070760
H 15.633900 11.923200 3.072150
H 14.484800 13.801700 2.683600
H 14.469300 13.802300 2.675190
H 14.505800 13.834000 2.693190
H 14.078400 14.005200 3.612160
H 14.092500 14.002600 3.620450
H 14.114700 14.032300 3.631070
H 14.671000 12.735000 4.629820
H 14.670600 12.721400 4.632660
H 14.917300 12.318900 4.822970
H 14.208000 13.141800 5.419520
H 14.188400 13.134300 5.409350
H 14.188900 13.120500 5.412910
H 14.659900 12.294000 5.788020
H 14.651700 12.273900 5.788250
H 14.667300 12.291400 5.790870
H 15.498100 11.602700 4.436020
H 15.200400 11.881300 4.748640
H 15.208600 11.900200 4.748880
H 13.984200 13.753300 4.619440
H 14.005700 13.779000 4.628980
H 13.975500 13.760700 4.612930
H 11.795000 13.569900 13.190700
H 11.814200 13.556100 13.181900
H 12.334700 12.721100 13.436100
H 12.351700 12.704200 13.421200
H 12.381900 11.686700 13.610400
H 12.368400 11.704300 13.628000
H 14.765900 12.593500 22.385200
H 14.746500 12.574500 22.407800
H 15.851500 12.025500 22.290500
H 15.874400 12.051600 22.268000
H 16.632500 12.374600 21.772600
H 16.654700 12.408000 21.754100
H 15.799400 12.925000 21.786700
H 15.780200 12.896800 21.804800
H 16.579700 13.281400 21.272800
H 16.561200 13.245900 21.286800
H 14.944000 13.442100 21.819400
H 14.927900 13.418900 21.836900
H 16.504700 14.154800 20.791500
H 16.489900 14.117100 20.801100
H 15.566000 13.983600 21.248800
H 15.580400 14.013500 21.236000
H 15.094000 11.695300 22.781900
H 15.070500 11.676500 22.808500
H 12.015800 16.733600 30.541100
H 12.144400 17.947100 27.800400
H 12.187300 18.351600 26.886800
H 12.839700 18.915100 27.460200
H 12.655100 17.922200 29.455300
H 12.697900 18.326700 28.541700
H 12.101500 17.542600 28.713900
H 12.058700 17.138100 29.627500
H 13.294300 19.110800 28.369500
H 13.429300 18.886300 29.371200
H 16.800100 21.679800 28.286300
H 16.833700 21.635200 28.257800
H 12.691200 17.513800 30.624900
H 13.208600 18.301700 30.196700
H 13.896200 25.276800 1.484800
H 13.889000 25.292100 1.482550
H 14.799700 25.299000 1.912970
H 14.461800 25.902800 0.884699
H 14.451800 25.916300 0.877852
H 13.812900 24.676700 2.311650
H 13.814700 24.662700 2.314360
H 14.759000 25.000800 2.315820
H 15.078400 25.620500 1.598930
H 16.435100 25.869200 1.936150
H 16.024500 25.944500 1.603100
H 15.531600 25.847100 1.507990
H 15.705100 25.324800 2.320000
H 15.703200 25.321200 2.341130
H 16.651200 25.648800 2.324180
H 16.344000 26.564300 0.886204
H 16.350200 26.561200 0.911468
H 15.056100 24.081100 3.770790
H 15.066200 24.085300 3.753790
H 14.239300 24.225100 3.151090
H 14.243800 24.235000 3.142980
H 14.971200 24.773100 2.746110
H 16.958400 24.733300 3.762150
H 16.046200 24.269500 4.007410
H 16.059800 24.267600 3.980430
H 15.385600 24.705000 3.036900
H 16.606600 25.343400 2.769290
H 16.331700 25.029000 3.041070
H 15.874700 24.795300 3.174270
H 16.944500 24.739600 3.797560
H 16.553100 22.624900 28.374700
H 16.530300 22.671300 28.413400
H 16.768200 23.634400 28.709300
H 16.778400 23.592200 28.667400
H 11.692200 24.256600 28.993000
H 11.731300 25.290300 28.949600
H 15.360100 26.372900 33.206600
H 15.350400 26.381900 33.191300
H 14.771700 28.271400 18.165200
H 14.760200 28.285300 18.191700
H 14.995200 29.017200 17.498200
H 15.006100 29.015500 17.484600
H 15.437600 29.311700 18.345300
H 15.444600 29.297800 18.337900
H 15.968700 30.148800 18.373100
H 15.965000 30.161200 18.364900
H 16.049900 30.716100 17.537300
H 16.054200 30.717500 17.555000
H 16.587100 31.227900 18.259400
H 16.587000 31.219400 18.287200
H 15.475500 29.910900 17.261200
H 15.467200 29.907000 17.258700
H 15.173000 27.984500 20.125500
H 14.825300 27.907300 19.153400
H 15.179300 27.940600 20.095200
H 14.835100 27.878000 19.120800
H 15.359100 28.729000 19.156000
H 15.352600 28.756800 19.172900
H 15.797700 29.011200 20.009300
H 15.795100 29.051200 20.020000
H 15.883200 29.580000 19.191200
H 15.880000 29.606200 19.192500
H 16.931300 31.282000 19.261600
H 16.994700 30.888600 20.217100
H 16.407200 30.431000 19.226400
H 16.407400 30.455700 19.212000
H 16.321700 29.862200 20.044500
H 16.322500 29.900700 20.039600
H 16.934800 31.305100 19.231500
H 16.999900 30.927100 20.193200
H 15.712200 28.442500 20.827400
H 15.710100 28.496300 20.847600
H 16.292800 29.305400 21.126200
H 16.290800 29.249100 21.121100
H 16.760300 30.144500 20.897800
H 16.764900 30.195200 20.886700
H 17.227500 3.819870 17.833700
H 17.219200 3.827920 17.818100
H 17.179800 3.776210 18.851400
H 17.181000 3.763760 18.866500
H 19.979700 1.245250 31.319300
H 19.960300 1.247520 31.326400
H 20.959100 0.985498 31.106600
H 20.938800 0.993139 31.103300
H 18.991600 0.966162 31.559600
H 19.007600 0.969270 31.544600
H 18.053600 9.282110 12.801700
H 18.075600 9.304650 12.776600
H 17.064100 9.215400 12.978500
H 17.041300 9.194130 13.000100
H 19.050300 9.411440 13.109000
H 19.027100 9.388820 13.137500
H 17.501100 9.292740 13.874700
H 17.981200 9.317070 13.798500
H 18.494200 9.390760 13.939900
H 17.908800 9.352040 14.795300
H 17.938200 9.370090 14.770900
H 17.085100 9.250250 14.237400
H 18.804900 9.418860 14.356400
H 18.931300 9.468110 14.836100
H 19.727000 9.507150 13.886700
H 19.701000 9.485690 13.917400
H 19.894600 9.546740 14.932700
H 19.924300 9.566130 14.901300
H 17.012700 9.285220 15.234200
H 17.382100 9.349410 15.601800
H 17.764000 9.421980 16.788900
H 17.800700 9.435520 16.765200
H 18.375200 9.447430 15.667000
H 17.836400 9.387010 15.792100
H 18.732500 9.453830 15.353200
H 18.776400 9.509960 16.590500
H 18.812200 9.524780 16.563200
H 19.589500 9.572580 15.881000
H 19.556200 9.555620 15.911100
H 18.337100 11.330400 21.708300
H 18.365500 11.373900 21.688800
H 17.699000 10.765700 22.296400
H 17.729100 10.802400 22.272100
H 20.877700 11.486100 27.692800
H 22.047100 11.453200 27.283800
H 22.344500 11.562600 26.335300
H 21.749800 11.343900 28.232300
H 20.068500 16.793000 5.174700
H 20.189900 16.465500 6.111780
H 19.240800 15.936100 5.516080
H 19.329300 16.427400 4.609040
H 20.234500 15.980200 7.251300
H 19.572100 15.772400 6.483210
H 20.929100 16.831200 6.677440
H 21.050500 16.503700 7.614530
H 17.452000 13.783700 20.613700
H 17.469200 13.828000 20.604900
H 18.215500 13.120700 20.726200
H 18.194600 13.072800 20.736800
H 18.518500 12.174800 21.137500
H 18.543600 12.222400 21.123000
H 17.435100 12.764300 21.240200
H 17.484800 11.852500 21.740500
H 17.413500 12.723700 21.254700
H 17.510100 11.890900 21.721400
H 20.440900 11.788500 25.764500
H 21.907800 11.865000 24.407000
H 20.993400 11.867600 24.892500
H 21.668900 11.715100 25.613900
H 20.398600 11.648900 26.789500
H 21.371600 11.605700 26.562400
H 19.814100 17.114600 4.005140
H 20.565000 17.813600 3.866190
H 21.381000 18.337100 4.229420
H 20.686400 17.486100 4.803270
H 20.807800 17.158600 5.740360
H 22.043400 18.544900 4.997500
H 22.374700 18.381200 5.964640
H 21.425600 17.851800 5.368930
H 21.801400 17.202700 7.475570
H 22.286200 17.889900 6.871670
H 21.547000 17.524300 6.306010
H 18.496100 20.584100 28.621100
H 18.457400 20.611200 28.620700
H 17.965500 21.745800 28.703000
H 17.992800 21.714600 28.689300
H 17.544800 20.888200 28.348000
H 17.505500 20.925800 28.362200
H 18.936600 21.672700 29.017200
H 18.913100 21.693100 29.018100
H 19.400700 20.820300 28.992600
H 19.432500 20.804300 29.003900
H 20.103100 21.489900 29.393800
H 20.082800 21.497200 29.378100
H 17.591600 25.979600 2.367900
H 17.597300 25.972800 2.328350
H 17.166400 26.414500 1.497020
H 17.167000 26.417300 1.531170
H 17.521100 25.357400 3.157450
H 17.510100 25.365600 3.197450
H 20.025600 25.761800 23.566200
H 20.037100 25.755600 23.570000
H 20.982700 25.370200 23.740700
H 20.973200 25.378300 23.730100
H 19.273000 26.428300 23.813500
H 19.285400 26.426100 23.809600
H 21.862000 25.380700 24.261200
H 21.868900 25.373100 24.276000
H 18.917000 27.199400 24.405600
H 18.929100 27.201800 24.395300
H 19.903300 27.343400 25.142300
H 20.013200 26.623300 24.457000
H 20.023200 26.622700 24.455500
H 19.912300 27.347200 25.135800
H 20.643500 27.538400 25.785900
H 20.650100 27.543800 25.781700
H 21.493600 27.013300 25.744200
H 21.498700 27.015900 25.747200
H 20.753400 26.818300 25.100600
H 20.760900 26.819300 25.101300
H 20.863300 26.098300 24.415300
H 20.871800 26.094700 24.421000
H 21.603500 26.293300 25.058900
H 21.609600 26.291400 25.066900
H 22.236500 27.212500 26.393100
H 22.233800 27.208300 26.387700
H 18.425500 22.565800 29.043700
H 18.440800 22.541000 29.030600
H 17.937900 23.438500 29.069200
H 17.944900 23.409400 29.044000
H 17.496900 22.583000 28.702700
H 17.477900 22.618500 28.728500
H 18.888700 23.367400 29.371900
H 18.885500 23.385800 29.384400
H 19.373100 22.513100 29.358800
H 19.384600 22.499100 29.358600
H 17.450300 24.311300 29.094800
H 17.449000 24.277700 29.057400
H 18.385400 24.498000 29.440200
H 18.393600 24.520400 29.466600
H 20.320700 22.460300 29.674000
H 20.050900 23.451800 29.801000
H 20.047800 23.446900 29.803400
H 20.328400 22.457100 29.686500
H 19.345500 24.205800 29.725100
H 19.336700 24.193800 29.713200
H 19.063600 27.875100 25.170300
H 19.644800 28.256000 25.940000
H 19.653000 28.265500 25.926700
H 19.053100 27.868400 25.184000
H 20.533500 28.258400 26.471100
H 20.539200 28.268400 26.462000
H 21.481100 27.874900 26.635000
H 21.484800 27.882900 26.632700
H 20.033900 29.778300 31.412900
H 20.033400 29.780500 31.402000
H 20.506400 30.916000 31.276900
H 20.499500 30.920900 31.266500
H 21.701400 30.803500 30.987900
H 21.710400 30.792000 31.010200
H 21.002100 30.061800 31.168800
H 21.006000 30.054300 31.187600
H 20.467800 32.652400 31.233700
H 20.482900 32.647500 31.236400
H 19.507200 32.639300 31.455400
H 20.006800 31.777600 31.366100
H 19.996800 31.779900 31.364200
H 20.982500 31.785800 31.147100
H 21.683300 32.791400 30.963400
H 21.664800 32.802900 30.950100
H 21.944000 31.806900 30.907900
H 21.958300 31.793900 30.928100
H 20.970400 31.793400 31.136000
H 18.328800 30.756800 31.778200
H 18.330300 30.763900 31.768800
H 19.054600 30.038000 31.625600
H 19.054900 30.034900 31.625000
H 19.525900 30.907400 31.494600
H 19.530700 30.907800 31.495900
H 18.303200 32.763300 31.722000
H 18.055300 31.761400 31.804100
H 18.049700 31.752900 31.820400
H 18.292300 32.756200 31.740400
H 19.494200 32.638900 31.461900
H 19.023300 31.766400 31.592300
H 19.031100 31.769500 31.585100
H 22.628800 10.774900 7.695920
H 22.762000 11.330500 6.832560
H 23.382600 11.398600 7.903190
H 22.899600 10.553400 8.670360
H 23.819100 11.373900 8.802610
H 23.501800 10.725600 9.494770
H 24.274000 11.245100 9.948260
H 27.302000 11.522600 20.561600
H 27.640200 11.308300 21.516400
H 24.290400 11.476300 25.881100
H 23.020100 11.410100 27.056700
H 23.695700 11.257600 27.778100
H 23.317500 11.519400 26.108200
H 24.248100 11.336700 26.906000
H 22.781200 11.260200 28.263600
H 23.699900 12.046900 7.211020
H 23.263400 12.071500 6.311600
H 23.998700 12.799300 6.272640
H 24.453700 12.670500 7.418290
H 24.770900 13.318900 6.726120
H 25.373100 13.491000 7.550540
H 24.136400 12.022200 8.110450
H 24.890100 12.645900 8.317710
H 24.572800 11.997600 9.009870
H 25.510800 12.713900 9.388340
H 25.643900 13.269600 8.524970
H 25.009300 11.972900 9.909300
H 26.915000 12.196700 19.877700
H 26.582900 13.150000 19.648000
H 26.851400 13.194300 20.610300
H 26.394600 14.127100 19.934000
H 27.210900 12.380600 21.067100
H 27.479400 12.424900 22.029400
H 27.119800 13.238700 21.572600
H 26.400700 14.866100 20.659000
H 26.599400 15.169000 21.628900
H 26.760200 14.052400 21.115800
H 27.028700 14.096700 22.078100
H 27.388300 13.283000 22.534900
H 27.656700 13.327300 23.497300
H 27.838900 11.611200 22.486200
H 27.324600 14.280600 23.267500
H 26.937600 14.954700 22.583700
H 22.939300 11.781300 24.438200
H 22.641900 11.671900 25.386800
H 23.811400 11.639000 24.977800
H 24.753100 18.594900 1.202680
H 25.679100 18.443300 0.856774
H 27.394900 18.506600 1.085470
H 26.468900 18.658100 1.431380
H 25.378600 18.889800 1.973200
H 26.332700 19.024400 2.351890
H 27.359800 18.962800 2.237270
H 25.850400 17.620800 31.316200
H 26.877500 17.559100 31.201600
H 24.623900 18.218800 32.778600
H 25.025500 17.862200 31.893400
H 25.815300 18.077000 32.468000
H 27.831600 17.693800 31.580300
H 26.741300 17.925400 32.122100
H 27.531100 18.140200 32.696700
H 26.605100 18.291800 33.042600
H 22.453600 25.768300 25.017200
H 22.458200 25.763400 25.032400
H 22.592800 26.436700 25.807300
H 22.589700 26.437300 25.795600
H 30.227600 15.183900 12.912500
H 30.243100 15.189700 12.893000
H 30.220600 15.177900 12.889600
H 29.219500 16.474000 12.342500
H 29.268000 15.247400 12.490300
H 29.288100 15.246200 12.496900
H 29.276200 15.249500 12.509600
H 29.216000 16.476100 12.336700
H 29.222200 16.477400 12.350300
H 28.494700 15.821500 12.110400
H 28.503000 15.820200 12.124500
H 28.506000 15.809700 12.119300
H 28.106200 16.729200 11.861300
H 28.107900 16.746400 11.851900
H 28.115200 16.743100 11.860300
H 30.803700 16.816400 12.970100
H 30.088000 16.164000 12.729300
H 31.114900 15.655300 13.201300
H 31.102300 15.640900 13.225300
H 31.097400 15.631700 13.201500
H 30.084500 16.159200 12.744300
H 30.079000 16.154300 12.726300
H 30.800400 16.808900 12.952600
H 30.801500 16.828200 12.952400
H 31.666000 16.498200 13.364100
H 31.670000 16.518200 13.339300
H 31.663400 16.487100 13.342200
H 27.845000 12.350200 23.211300
H 28.184700 18.721300 1.660070
H 28.586300 18.364800 0.774936
H 31.345300 20.100400 3.752140
H 31.339800 20.089300 3.734880
H 32.220800 21.878300 3.888600
H 31.799300 20.997400 3.544800
H 31.805500 21.007700 3.559950
H 32.227400 21.889200 3.901690
H 30.970100 19.410500 4.426770
H 30.965700 19.397200 4.407920
H 30.780400 19.122800 5.403060
H 30.777000 19.106700 5.383580
H 31.217500 20.001200 5.460440
H 31.244800 20.113000 5.986010
H 31.316300 20.161000 4.989690
H 31.498900 20.492500 4.636090
H 31.939400 21.387000 4.712950
H 32.008600 21.662200 6.115520
H 31.662500 20.911600 5.552600
H 31.734000 20.959700 4.556280
H 32.098500 21.790200 5.614160
H 32.080200 21.710200 5.119200
H 31.658000 20.895700 5.537300
H 31.095200 19.913200 7.186000
H 31.097600 19.934000 7.203520
H 30.824400 19.295600 6.400430
H 30.827100 19.314400 6.419420
H 31.376600 20.404500 6.361650
H 31.516700 20.794100 7.529800
H 31.519400 20.815600 7.545260
H 31.590900 20.863600 6.548930
H 31.979600 21.722900 7.353060
H 31.817100 21.299000 6.438510
H 31.976100 21.702200 7.339720
H 32.350300 22.394300 6.666680
H 32.354800 22.412800 6.678440
H 29.064400 17.448300 12.178800
H 29.074400 17.452500 12.173400
H 29.079100 17.452700 12.182000
H 28.211400 17.774300 11.783900
H 28.216800 17.770900 11.788000
H 28.195900 17.758300 11.792000
H 28.777400 18.629800 11.924600
H 28.751000 18.621300 11.929900
H 28.780400 18.628200 11.926800
H 29.777900 18.112600 12.401900
H 29.798300 18.109900 12.407800
H 29.795800 18.107100 12.399700
H 29.941400 17.134500 12.576100
H 29.932900 17.138300 12.565600
H 29.937400 17.130700 12.563000
H 30.658800 17.785300 12.789300
H 30.660600 17.791700 12.801900
H 30.646400 17.802500 12.788800
H 31.380100 18.439900 13.015600
H 31.359900 18.466800 13.011900
H 31.379800 18.448900 13.027700
H 31.767500 17.526000 13.291800
H 31.759700 17.547300 13.270000
H 31.766900 17.515000 13.274200
H 29.622800 19.086900 12.238300
H 29.655200 19.085200 12.239600
H 29.654200 19.083500 12.236400
H 30.577700 19.030300 12.634300
H 30.606600 19.019600 12.642500
H 30.606800 19.014100 12.635800
H 28.457100 17.988700 32.350800
H 32.497900 22.508900 4.685790
H 32.491600 22.495900 4.674170
H 32.544500 22.700500 5.702150
H 32.539000 22.684800 5.691020
950
Atoms. Timestep: 50000
H 5.646350 11.563200 6.363120
H 4.187320 10.706400 6.824340
H 4.201530 10.716600 6.805910
H 5.189620 10.620100 7.069000
H 5.204940 10.626900 7.044670
H 3.441500 11.197000 6.292610
H 4.655680 11.445600 6.293620
H 4.643290 11.430500 6.306870
H 3.429380 11.180700 6.302380
H 5.633490 11.549900 6.380090