ITEM: TIMESTEP
0
ITEM: NUMBER OF ATOMS
900
ITEM: BOX BOUNDS pp pp pp
7.3598007983716585e-01 3.3264019920151441e+01
7.3598007983716585e-01 3.3264019920151441e+01
7.3598007983716585e-01 3.3264019920151441e+01
ITEM: ATOMS id mol type x y z 
21737 0 3 3.77812 5.8616 2.2919 
20927 0 3 5.72689 3.47185 3.84935 
5897 0 3 2.89666 1.94009 5.25849 
8769 0 3 3.67624 1.20726 5.98219 
3687 0 3 5.68369 1.86684 5.48142 
992 0 3 5.97501 4.06884 5.90234 
23411 0 3 1.26633 3.1772 7.51606 
4715 0 3 1.86209 5.25324 7.04952 
13538 0 3 4.5712 5.39145 6.60799 
15973 0 3 3.73649 2.27187 10.7951 
6378 0 3 5.72484 5.41736 10.4184 
22264 0 3 1.33433 4.18962 15.7017 
19149 0 3 4.62022 3.41442 15.6943 
2705 0 3 4.7406 0.896326 19.7368 
4860 0 3 2.91283 1.59413 25.0205 
15398 0 3 2.07172 5.20695 27.4227 
26005 0 3 3.8119 5.13595 32.1137 
9414 0 3 2.43513 7.07376 0.776138 
6092 0 3 3.81331 8.37011 1.713 
497 0 3 0.85302 6.5696 5.57262 
10415 0 3 3.57987 8.87601 5.20431 
20818 0 3 5.2061 9.35558 4.70869 
26663 0 3 5.58726 9.24228 5.70342 
4001 0 3 4.86324 9.95924 8.02662 
24929 0 3 1.29394 7.94512 11.0152 
1874 0 3 3.6942 7.41266 10.0477 
16113 0 3 0.94433 10.2147 11.1705 
12018 0 3 5.22171 9.92977 10.135 
24921 0 3 2.76409 7.1123 12.5862 
11088 0 3 5.69481 7.47923 13.3288 
332 0 3 3.02295 10.1839 12.6675 
16683 0 3 1.58501 6.40849 13.6604 
13445 0 3 2.66216 9.01669 13.7242 
17547 0 3 5.61607 11.109 15.1301 
19812 0 3 4.29856 8.97322 16.3685 
16154 0 3 5.43061 9.41832 16.3693 
172 0 3 1.67515 10.9949 18.6011 
16912 0 3 1.01183 9.07734 25.5081 
8595 0 3 2.38897 8.48136 25.8748 
15470 0 3 2.79657 9.23216 25.1972 
1153 0 3 2.65135 8.49906 29.111 
13754 0 3 3.68475 11.5154 28.5366 
2878 0 3 6.08181 7.53697 30.5954 
18098 0 3 6.00854 9.46487 31.532 
584 0 3 5.43399 10.3046 32.9497 
24041 0 3 3.40093 15.9754 1.43509 
14741 0 3 5.75498 16.0519 3.41932 
10191 0 3 4.42123 12.7778 5.89098 
7391 0 3 3.44555 14.0483 4.95763 
12075 0 3 5.77143 16.0829 6.81245 
13255 0 3 5.47466 11.8915 8.11984 
22388 0 3 4.26755 15.8483 8.71427 
1028 0 3 4.36058 13.3152 10.3365 
229 0 3 0.903114 16.1548 10.8644 
12625 0 3 1.46508 15.8251 11.7878 
10689 0 3 5.77949 12.7824 15.8983 
20856 0 3 4.44876 13.1199 15.5384 
2686 0 3 1.0361 15.1306 16.0142 
582 0 3 2.77 12.4965 18.3219 
4864 0 3 2.66121 12.2333 22.4137 
5189 0 3 3.76277 12.7233 22.9977 
11443 0 3 1.01592 16.2092 24.0959 
12493 0 3 5.14999 15.6354 23.3063 
2150 0 3 1.95285 11.7937 25.6795 
23798 0 3 5.08248 12.0529 25.6802 
17658 0 3 2.2675 14.1801 26.3499 
26598 0 3 4.9712 16.2203 28.6639 
21112 0 3 5.06412 12.0449 29.7377 
20008 0 3 3.40851 16.2119 29.8263 
10648 0 3 0.766407 17.6207 2.6584 
26228 0 3 2.57512 18.4511 3.29084 
22012 0 3 4.19149 17.6006 4.1895 
19576 0 3 4.29817 17.6322 5.3706 
25589 0 3 1.23022 19.9819 6.94309 
22440 0 3 2.11383 17.9918 8.72416 
14285 0 3 1.89148 17.8787 11.8195 
20416 0 3 1.57366 17.5807 18.2941 
7687 0 3 1.59093 21.7081 17.4854 
10320 0 3 3.21771 21.2378 19.8401 
188 0 3 2.2156 17.723 22.2689 
3579 0 3 3.40574 21.5467 21.0326 
3785 0 3 4.7603 20.5674 23.6433 
4345 0 3 1.68887 18.1822 24.3264 
17067 0 3 5.7593 18.4928 25.9118 
1247 0 3 5.56459 21.7088 25.1141 
10607 0 3 2.71723 17.6223 27.1243 
6821 0 3 1.28631 21.255 26.4901 
18205 0 3 1.80425 21.3246 27.821 
689 0 3 1.36752 18.8363 31.4047 
16051 0 3 3.98728 20.4104 30.1653 
8104 0 3 3.58003 21.2809 31.4211 
4819 0 3 2.93648 19.4261 31.6776 
8068 0 3 2.19615 21.2676 32.1279 
24419 0 3 1.8422 27.1751 1.15071 
7266 0 3 3.25152 26.0913 3.19309 
22852 0 3 3.556 25.6555 5.22249 
11100 0 3 4.02182 24.4883 5.02818 
25142 0 3 2.67151 27.7422 5.95326 
17997 0 3 3.24934 22.4617 7.22439 
4453 0 3 5.20502 24.333 6.41245 
5681 0 3 4.11529 23.6346 7.97431 
24532 0 3 1.41834 25.4659 8.53417 
17568 0 3 3.44576 27.6243 9.75703 
8925 0 3 2.58414 26.3352 8.2374 
8252 0 3 2.45784 24.2328 10.8362 
23342 0 3 3.11226 26.6928 11.4642 
16402 0 3 0.746671 23.6197 13.4009 
2950 0 3 0.90157 23.9946 14.6269 
23069 0 3 2.25383 27.5666 14.5476 
12648 0 3 2.93163 24.5514 18.0761 
13362 0 3 5.77695 24.9747 17.6746 
20177 0 3 2.98662 22.4674 19.6992 
23682 0 3 2.9012 27.6494 18.9755 
20250 0 3 1.0884 22.8972 21.3209 
1654 0 3 1.77151 23.209 22.5295 
8098 0 3 3.4774 23.1137 23.2884 
26119 0 3 0.994981 25.8896 23.1005 
19750 0 3 2.28811 26.4281 23.5522 
2729 0 3 2.48834 23.0808 26.8996 
15045 0 3 5.68932 25.5206 26.8222 
4326 0 3 1.22002 27.6125 26.4744 
2930 0 3 1.95511 22.7714 31.055 
20425 0 3 2.18945 23.5279 31.6946 
25894 0 3 3.89116 23.8944 32.6414 
3735 0 3 4.29963 24.6686 31.7703 
11004 0 3 5.35522 28.1783 2.28762 
26850 0 3 5.08798 33.2471 2.39736 
21237 0 3 2.04622 29.45 3.74012 
4770 0 3 4.58595 32.4294 3.52999 
11801 0 3 5.65306 31.4659 5.7304 
7852 0 3 3.00859 29.214 7.3942 
15901 0 3 2.10443 30.9607 6.9654 
651 0 3 3.27163 32.3991 11.2233 
16206 0 3 2.22215 28.3136 12.3252 
4866 0 3 4.03042 28.1349 12.6768 
9421 0 3 2.09566 31.4342 14.5214 
4694 0 3 2.24504 28.3398 15.951 
19864 0 3 2.36051 32.0446 16.1202 
25936 0 3 5.55435 28.2278 17.2202 
215 0 3 2.2082 31.4709 17.0175 
11959 0 3 2.74052 30.595 19.903 
17879 0 3 4.82365 30.916 20.3442 
12821 0 3 1.75907 31.6187 19.7239 
4176 0 3 3.78561 32.6526 20.4193 
12976 0 3 1.48288 30.5813 21.5739 
8526 0 3 3.45755 31.6726 23.0757 
9715 0 3 1.09386 31.2975 26.4237 
4893 0 3 2.21166 31.9078 27.2496 
23726 0 3 4.72236 29.1187 28.6027 
1457 0 3 1.78632 30.6958 29.0791 
26632 0 3 2.47119 29.0689 30.3356 
15356 0 3 2.08448 30.5105 31.3446 
20448 0 3 1.61719 29.6157 31.9606 
6970 0 3 1.91484 29.0069 33.1234 
22719 0 3 6.03783 31.0102 32.3306 
955 0 3 6.39855 4.38178 1.87739 
26111 0 3 9.35653 5.2279 2.30877 
26857 0 3 8.02008 0.737311 3.69391 
1707 0 3 9.51772 3.77547 4.75833 
23463 0 3 11.1438 2.73338 5.25573 
3775 0 3 9.02356 4.56411 5.83215 
3193 0 3 7.08951 2.59285 6.70367 
23934 0 3 8.52896 4.10835 7.72811 
24718 0 3 9.33643 2.80819 6.84281 
10920 0 3 7.81285 1.95125 12.1627 
20928 0 3 9.20413 5.93736 11.9982 
22158 0 3 9.93069 1.39525 14.5832 
6193 0 3 11.1096 2.64041 15.8318 
16836 0 3 11.3188 5.24607 18.0803 
5340 0 3 8.93742 3.04764 21.6017 
1134 0 3 8.3367 1.11681 23.4989 
4854 0 3 10.164 1.19994 26.5218 
24107 0 3 7.74378 2.87413 28.3617 
12342 0 3 8.28224 1.22161 30.4876 
25877 0 3 7.33894 7.82687 2.19919 
11952 0 3 9.45226 8.26276 2.28234 
25607 0 3 9.48233 10.5754 3.02934 
14661 0 3 10.2404 10.0166 3.45384 
8614 0 3 6.64291 9.57442 5.52769 
23690 0 3 9.77346 8.66707 6.07093 
22031 0 3 8.46844 6.32796 7.4403 
20616 0 3 7.81085 6.99966 8.10728 
18161 0 3 9.29978 11.3872 8.50293 
19920 0 3 8.58331 7.52366 11.5367 
4245 0 3 8.07956 6.24644 10.1332 
1461 0 3 7.78574 10.7331 10.0756 
1075 0 3 6.5223 9.86907 11.1089 
24535 0 3 9.71132 11.2168 10.1719 
14400 0 3 6.19582 7.92182 11.7977 
25320 0 3 10.4687 8.7922 12.0123 
19791 0 3 9.26049 7.69875 14.8657 
8630 0 3 7.43458 10.0213 14.3446 
20010 0 3 7.29294 9.16173 15.4195 
18138 0 3 11.4729 9.85946 17.4194 
26047 0 3 10.0901 10.8888 23.9774 
20919 0 3 7.55889 6.2915 28.5477 
21403 0 3 9.02644 9.41731 29.1323 
8403 0 3 9.148 8.98026 28.1559 
17319 0 3 9.18682 11.0689 29.2864 
10817 0 3 6.97165 11.8675 1.99756 
21794 0 3 10.5546 15.9904 1.29436 
4418 0 3 9.55829 11.6557 3.16133 
14714 0 3 8.06359 16.1363 4.95661 
22157 0 3 7.97354 12.7537 7.76692 
18985 0 3 11.3712 13.3762 7.09456 
4181 0 3 8.47764 16.296 6.79808 
2742 0 3 9.57061 15.2218 6.51744 
18737 0 3 10.7332 11.7975 8.48628 
22751 0 3 8.91145 15.1497 8.52404 
21434 0 3 6.30926 16.9683 8.66406 
10497 0 3 6.32592 13.7017 10.4105 
9704 0 3 6.64809 15.0296 9.85499 
2500 0 3 6.98883 12.1067 11.598 
2437 0 3 9.41774 14.4365 11.6313 
25528 0 3 6.19835 15.2208 13.9126 
21412 0 3 9.84689 12.1693 15.4662 
8793 0 3 8.47802 16.3617 17.5364 
13235 0 3 9.98083 12.5461 18.8498 
8689 0 3 8.34348 12.0484 25.949 
9099 0 3 7.45532 13.5109 27.6359 
990 0 3 7.74865 14.5791 27.0527 
13329 0 3 6.29286 16.7368 28.4849 
21345 0 3 10.1842 14.4801 30.9031 
20302 0 3 6.81716 14.4593 31.7598 
21850 0 3 7.34872 17.1783 1.13389 
6557 0 3 10.9401 17.7117 3.37716 
24997 0 3 6.69436 21.2854 4.21414 
9549 0 3 8.67274 20.9594 3.68185 
18331 0 3 10.3129 22.2453 4.30859 
2921 0 3 11.5432 18.7136 5.80209 
15849 0 3 11.5156 20.8838 7.24734 
11012 0 3 9.49766 19.8195 9.00819 
6550 0 3 10.6922 19.6786 8.26699 
13141 0 3 9.75412 19.623 10.4289 
13748 0 3 8.23696 20.0747 17.138 
10567 0 3 11.2782 18.2787 19.6684 
26114 0 3 6.20426 19.2649 22.0356 
5473 0 3 9.64022 19.8009 22.4834 
13174 0 3 9.42562 21.76 22.8431 
23072 0 3 10.8425 22.3371 25.2701 
25892 0 3 7.30095 21.6136 26.7272 
25123 0 3 6.93948 21.3955 28.5549 
25515 0 3 7.76108 21.5813 27.917 
22768 0 3 9.99252 21.7995 28.3351 
4806 0 3 8.6658 18.3748 29.6535 
26244 0 3 8.85465 17.3478 32.0575 
15362 0 3 9.78296 17.5543 32.3368 
3683 0 3 8.01093 25.7189 2.02242 
24548 0 3 9.57807 22.8612 3.65214 
23871 0 3 6.98515 24.4898 3.77403 
10439 0 3 7.35829 25.3308 4.27606 
4635 0 3 10.1773 24.423 4.2406 
13268 0 3 6.46494 23.0166 6.97687 
24017 0 3 7.2435 25.1966 7.05722 
13742 0 3 6.79656 25.9927 8.8573 
21480 0 3 9.45389 26.6532 8.67028 
15821 0 3 7.34094 25.2917 10.1925 
7033 0 3 9.52039 24.7057 11.3231 
10258 0 3 10.2394 24.3627 12.1631 
8543 0 3 8.69828 26.0779 13.247 
16551 0 3 10.1657 24.2216 14.7755 
18484 0 3 8.17766 25.8791 16.1928 
19228 0 3 6.62345 27.0691 15.2977 
12619 0 3 6.42996 23.3214 17.1005 
13763 0 3 9.76787 22.8456 17.1748 
17225 0 3 9.06537 27.6602 20.2803 
6827 0 3 6.94373 23.7074 21.4519 
4035 0 3 8.99621 23.463 25.8628 
4906 0 3 9.59064 24.7401 24.2535 
26215 0 3 6.42234 26.0314 26.2128 
19708 0 3 9.62023 26.4229 28.0553 
7987 0 3 7.88596 25.0248 31.4552 
21337 0 3 6.20216 31.0581 2.26696 
14261 0 3 7.69998 32.9253 1.21037 
666 0 3 9.91045 32.5222 1.6455 
9233 0 3 9.82865 29.7846 4.39174 
14090 0 3 7.82055 30.8896 7.66902 
7185 0 3 11.275 32.7147 6.95424 
20829 0 3 8.83514 28.0727 9.4376 
14218 0 3 10.8277 28.9711 9.00189 
17791 0 3 6.99181 31.3861 8.16849 
12544 0 3 8.72643 31.5238 9.05052 
5583 0 3 11.1242 32.3436 8.40358 
20506 0 3 6.6606 32.9486 10.3159 
13521 0 3 10.3786 30.5845 14.5773 
26374 0 3 6.66211 32.3672 16.4419 
20179 0 3 10.3039 29.1239 17.4849 
11730 0 3 6.85879 31.5729 18.2975 
3293 0 3 10.9584 30.94 19.7117 
3742 0 3 10.7792 28.3657 22.0714 
8757 0 3 6.7895 32 30.6381 
6822 0 3 8.02588 31.8603 31.1574 
17583 0 3 13.0037 2.41631 2.09761 
14937 0 3 12.7497 0.747056 2.25124 
26605 0 3 16.2184 3.96336 4.20511 
17261 0 3 13.2653 1.39331 7.27117 
8049 0 3 15.9842 3.38179 7.49214 
1757 0 3 12.9696 4.56167 7.58125 
2139 0 3 11.6035 2.58607 8.69391 
7683 0 3 13.6405 4.71115 8.87918 
14242 0 3 12.2126 5.34666 10.868 
19449 0 3 11.8878 4.50574 10.212 
2914 0 3 13.391 4.80529 11.4253 
5835 0 3 15.6269 2.52591 14.2921 
526 0 3 13.9966 3.75365 18.3252 
6806 0 3 16.0814 4.50005 17.3865 
15031 0 3 13.2564 0.812458 22.2633 
5837 0 3 16.9457 2.12421 21.056 
9519 0 3 11.6814 5.11793 21.9171 
17615 0 3 15.4051 1.87927 23.5101 
12282 0 3 14.8994 3.70387 22.5051 
14910 0 3 16.5391 3.53783 23.7222 
2230 0 3 14.1658 4.93474 23.5747 
2445 0 3 11.8973 2.10078 25.3116 
20996 0 3 13.5397 3.26806 26.1876 
22681 0 3 16.6837 6.14102 29.8597 
5931 0 3 16.202 11.3641 3.12052 
10222 0 3 11.6268 7.33754 5.80447 
11693 0 3 12.5644 8.03961 5.16762 
11680 0 3 12.3586 10.9428 6.15702 
25478 0 3 14.9738 11.5244 5.96542 
2628 0 3 14.9794 6.26082 8.43063 
4666 0 3 15.2972 10.2823 9.69065 
19128 0 3 13.8477 6.61179 10.7122 
1 0 3 14.9101 6.80917 11.6594 
10613 0 3 12.9396 11.0595 11.8392 
1348 0 3 14.2194 11.5733 12.1638 
25621 0 3 16.7736 6.31108 14.1043 
6387 0 3 16.9603 9.77983 13.4019 
22893 0 3 12.8537 7.03548 15.3185 
23689 0 3 15.404 7.03446 16.2442 
22606 0 3 14.4713 8.89516 15.426 
1143 0 3 16.4188 9.75737 17.9854 
21705 0 3 13.6256 11.2212 18.4959 
11842 0 3 12.2967 7.6634 19.0883 
20095 0 3 15.1194 6.30859 20.0959 
7927 0 3 12.4551 9.61896 19.6546 
11138 0 3 12.6718 11.129 20.5706 
20458 0 3 14.176 7.07926 21.7506 
2548 0 3 16.2475 6.6366 20.9186 
26949 0 3 16.0622 9.57408 23.6017 
5504 0 3 12.6521 7.01201 24.3411 
19848 0 3 14.8266 8.38775 24.9752 
22542 0 3 14.8132 9.33542 25.2993 
23308 0 3 16.7943 10.5443 25.2303 
1566 0 3 14.0815 8.53423 26.9843 
10628 0 3 12.0369 9.94459 27.2446 
23935 0 3 13.9372 10.6176 29.1292 
24091 0 3 16.7978 9.69345 33.0483 
22044 0 3 12.2366 11.0761 32.235 
25224 0 3 12.3341 13.5746 4.20436 
7630 0 3 14.4409 14.66 4.29655 
12642 0 3 14.133 15.7804 5.11555 
21185 0 3 11.9714 16.816 6.75724 
21465 0 3 14.0449 15.7955 6.2419 
14256 0 3 12.0748 12.979 8.02318 
17895 0 3 14.3405 13.1461 9.53511 
17321 0 3 16.1897 15.6968 8.35935 
2868 0 3 11.7036 12.0025 10.553 
17532 0 3 16.9586 11.6576 10.3582 
4959 0 3 13.1124 16.9311 10.2136 
10160 0 3 15.4006 15.6336 11.417 
1761 0 3 12.6304 12.4846 12.7595 
7853 0 3 12.3909 14.2779 12.0449 
16546 0 3 11.6978 15.1166 11.9442 
21303 0 3 14.2753 15.3219 12.6115 
15715 0 3 14.3585 15.067 16.7967 
6740 0 3 12.2538 16.5068 18.1652 
18151 0 3 12.4847 15.6112 19.7165 
17746 0 3 16.2512 16.0203 19.8135 
8249 0 3 14.1176 15.0895 21.7433 
320 0 3 14.3794 16.4559 22.1087 
4868 0 3 14.3154 12.1605 23.3361 
4972 0 3 16.0093 12.8362 23.2526 
13653 0 3 12.2288 13.5083 25.3225 
23006 0 3 13.6232 15.536 27.8871 
4899 0 3 16.4053 15.3963 29.2142 
22263 0 3 12.0427 11.7616 31.3586 
23709 0 3 13.3703 14.1732 30.3529 
10426 0 3 12.9007 16.0402 31.954 
7206 0 3 14.7424 19.7972 2.03347 
24641 0 3 16.5003 19.511 2.46015 
6866 0 3 14.5713 21.9632 3.39919 
13656 0 3 13.5942 19.8032 5.77386 
10118 0 3 15.573 19.7356 5.1679 
2684 0 3 15.0939 21.1098 7.24773 
18407 0 3 13.6579 20.7182 8.62591 
2956 0 3 12.3459 21.7027 12.8858 
3786 0 3 13.8043 21.6453 12.6754 
13853 0 3 15.554 18.371 14.6717 
18012 0 3 12.1066 19.725 14.6822 
13261 0 3 15.4878 22.1163 16.5409 
7870 0 3 13.6038 18.7783 20.1327 
23788 0 3 14.9842 20.9011 20.527 
20790 0 3 16.0408 22.0863 18.8466 
11810 0 3 12.8551 18.9212 21.934 
11635 0 3 16.5603 22.1831 20.6872 
23163 0 3 16.5844 18.2513 24.1887 
24612 0 3 12.085 21.1477 23.4275 
19928 0 3 12.3572 21.9441 27.5034 
6422 0 3 14.7305 19.124 30.7037 
16867 0 3 15.9007 20.7662 30.4115 
7154 0 3 12.8227 19.4057 32.7231 
26616 0 3 13.9397 20.6672 31.7427 
10700 0 3 14.2678 23.6684 1.05011 
1979 0 3 13.5281 26.029 0.920377 
6191 0 3 11.8236 24.3177 3.92771 
16197 0 3 14.8237 24.8329 3.93982 
22394 0 3 14.7652 22.6051 5.53246 
19163 0 3 14.6476 25.2748 5.16377 
3371 0 3 12.4382 24.1003 6.8585 
7571 0 3 15.8962 23.218 7.24762 
22678 0 3 16.4538 24.0835 8.84888 
19847 0 3 16.5405 23.1058 10.645 
7503 0 3 15.7785 26.2092 10.4591 
4047 0 3 14.1896 22.7101 12.7355 
23503 0 3 12.9677 22.5682 14.3914 
26660 0 3 13.5808 26.5921 18.9679 
25597 0 3 16.3732 26.512 18.8996 
4092 0 3 14.7774 23.1962 26.4067 
6435 0 3 12.3953 24.792 28.2485 
12570 0 3 14.6086 24.8831 29.0601 
14481 0 3 13.3714 26.6941 28.9025 
18058 0 3 12.8033 23.5276 30.1793 
13398 0 3 11.8028 24.7247 32.0413 
22549 0 3 12.54 26.2711 33.0699 
9049 0 3 14.4796 28.8617 1.46388 
26731 0 3 13.6898 27.9088 3.25327 
8763 0 3 15.126 29.0547 3.85865 
24939 0 3 13.9034 29.9542 6.69118 
18969 0 3 15.5651 30.9146 6.52145 
6812 0 3 14.1695 32.8265 7.48277 
26611 0 3 16.0917 28.0836 8.20856 
3338 0 3 18.5591 1.47943 5.32344 
13847 0 3 19.4531 1.94992 4.50348 
26048 0 3 18.4117 4.41511 7.81465 
5995 0 3 18.43 2.35903 11.4184 
23952 0 3 17.6285 1.40319 12.6034 
18253 0 3 20.1437 1.94579 13.3161 
17681 0 3 21.1529 4.19005 14.8733 
20898 0 3 17.6174 4.66233 15.2541 
23677 0 3 18.8417 1.42599 17.7571 
2578 0 3 22.4029 2.1024 17.6862 
18352 0 3 21.2643 5.94197 18.5726 
4640 0 3 20.3997 1.52217 19.4377 
12608 0 3 17.9664 4.2206 19.3256 
17632 0 3 20.4189 5.97158 20.18 
9103 0 3 18.1331 3.6449 21.0343 
11684 0 3 18.283 4.99605 21.1226 
15501 0 3 19.3809 2.34634 22.5327 
12612 0 3 19.4123 6.08841 31.1929 
22780 0 3 17.8228 6.21434 7.61755 
15675 0 3 20.5503 9.14593 9.23495 
26051 0 3 19.4931 7.98652 8.1595 
9020 0 3 17.4066 6.9603 10.0933 
1577 0 3 19.5334 7.50985 11.2944 
15878 0 3 20.2438 8.79098 11.5534 
17635 0 3 17.6017 8.18639 13.332 
7284 0 3 21.7406 7.48343 13.4889 
21777 0 3 21.1078 11.1868 13.4831 
7692 0 3 20.6506 7.70952 16.2362 
24888 0 3 17.2245 10.1224 15.1966 
1144 0 3 17.0191 7.53398 20.4759 
3414 0 3 17.1644 11.2155 20.6821 
7741 0 3 19.7881 10.099 21.705 
8884 0 3 17.2095 7.1188 24.0189 
16207 0 3 17.0735 8.00651 23.1924 
15217 0 3 19.6343 10.7996 22.5464 
502 0 3 19.8058 8.79193 27.0375 
6360 0 3 20.6058 7.95226 31.0735 
2936 0 3 17.2482 11.8513 1.80508 
7557 0 3 19.2757 16.4849 1.57044 
21427 0 3 18.6635 14.108 3.54927 
952 0 3 19.4014 14.6493 5.12776 
23486 0 3 21.5881 12.579 7.10046 
26064 0 3 18.3008 15.6722 6.48594 
6227 0 3 17.2993 12.8022 10.4197 
9341 0 3 20.3583 13.7375 10.7987 
11898 0 3 18.9871 16.0842 11.3641 
25322 0 3 20.1599 12.8027 12.2531 
12956 0 3 21.9613 16.7961 11.6484 
24180 0 3 17.2124 12.1629 13.5005 
7242 0 3 21.9883 14.6688 13.8527 
2171 0 3 18.2249 15.78 14.0095 
15736 0 3 18.3812 15.1269 15.5708 
22080 0 3 19.9416 13.878 16.2613 
8664 0 3 21.5736 12.3157 18.1587 
2854 0 3 18.6584 13.4873 20.2491 
2440 0 3 18.3445 16.0425 21.9136 
21486 0 3 21.6402 16.2302 23.7826 
4256 0 3 20.1284 13.0154 24.3196 
778 0 3 18.6203 14.922 29.7929 
5960 0 3 21.1981 14.9249 32.2679 
16028 0 3 20.0864 17.8079 1.87054 
4386 0 3 21.3812 18.4305 2.27518 
21853 0 3 19.3256 19.935 3.36923 
3956 0 3 20.5985 19.7332 3.33663 
11953 0 3 21.0029 22.1543 3.67946 
23772 0 3 19.4979 19.288 5.93436 
8386 0 3 20.373 22.2103 5.16311 
14253 0 3 17.6915 17.0914 7.4316 
7019 0 3 21.6555 17.0909 7.96699 
14982 0 3 19.977 20.7024 10.7116 
6572 0 3 17.7428 18.6232 12.18 
5417 0 3 19.2149 20.3215 13.0894 
261 0 3 18.4811 21.5543 12.0699 
18150 0 3 18.1833 17.5672 13.7531 
11892 0 3 20.4465 17.3998 13.868 
9110 0 3 20.2691 20.1224 14.9342 
1332 0 3 22.3617 20.8627 13.649 
7454 0 3 19.5334 19.3487 15.9177 
20240 0 3 19.8614 20.0501 18.1478 
7155 0 3 18.4212 21.7626 18.6329 
16949 0 3 21.5502 22.1241 17.8267 
24479 0 3 22.0035 21.2281 18.2694 
22699 0 3 19.118 18.6301 19.3892 
6497 0 3 17.6562 20.3246 19.8134 
20225 0 3 17.7989 21.4353 20.0804 
7156 0 3 21.2218 20.3262 29.3711 
15816 0 3 17.8617 18.6549 30.2064 
16815 0 3 20.5491 18.161 31.0413 
19683 0 3 20.1437 18.7181 31.8297 
8988 0 3 19.5292 19.1908 32.962 
1721 0 3 20.0903 23.8882 2.33599 
7311 0 3 18.0915 23.7465 4.76637 
3740 0 3 22.29 25.8057 5.94121 
24546 0 3 19.4768 26.3126 5.14987 
19224 0 3 20.4581 26.7639 4.73537 
8278 0 3 19.2517 25.0775 7.35501 
16416 0 3 19.771 25.3881 10.8356 
10643 0 3 22.0183 27.3489 11.3916 
22506 0 3 20.2547 25.8603 12.83 
2890 0 3 17.2532 23.9006 14.9101 
4855 0 3 18.7091 24.1646 20.1273 
19457 0 3 20.6897 22.6252 19.2451 
4367 0 3 22.0898 23.9893 19.582 
4895 0 3 20.9586 25.9174 19.1243 
4451 0 3 19.6209 23.9605 25.1228 
8217 0 3 20.1374 25.7784 25.8325 
15055 0 3 17.1568 24.1844 27.7979 
21702 0 3 18.1952 23.0504 26.3958 
7989 0 3 19.7104 23.1326 28.7747 
26764 0 3 21.0377 23.8219 28.5731 
22454 0 3 20.1518 25.1146 31.1467 
6284 0 3 22.0233 27.2041 30.6512 
379 0 3 18.0286 24.0403 33.0639 
19500 0 3 20.7676 27.2411 32.8555 
8513 0 3 17.663 29.6992 1.68591 
20756 0 3 20.2676 28.3028 2.84547 
1420 0 3 19.5169 29.6545 4.01963 
22562 0 3 17.607 29.822 5.31672 
704 0 3 19.2861 30.3279 4.90855 
17732 0 3 21.6266 31.5352 4.95098 
9789 0 3 22.0077 29.1124 6.88881 
14827 0 3 21.7504 30.1732 7.41411 
13441 0 3 19.0968 31.8875 6.59113 
12805 0 3 18.7496 31.4844 11.1195 
11639 0 3 22.1407 28.4924 13.1376 
9034 0 3 21.6943 29.628 16.1826 
24907 0 3 20.4572 32.3369 15.2914 
9424 0 3 21.483 32.687 21.1096 
11938 0 3 21.2071 31.5563 20.7695 
2475 0 3 20.802 32.1238 24.249 
17905 0 3 21.0958 29.5796 26.4357 
12841 0 3 20.8007 32.5789 28.1514 
20505 0 3 22.0614 28.5068 29.7695 
12798 0 3 18.3694 30.5012 30.4821 
17896 0 3 26.4756 1.70561 2.24728 
22677 0 3 26.4528 3.38799 8.15767 
17631 0 3 22.4475 5.62378 8.91223 
13891 0 3 25.3993 2.69342 11.5633 
4253 0 3 25.7872 4.99078 12.745 
386 0 3 24.5965 4.64579 14.9599 
24320 0 3 25.7133 1.45784 15.4659 
10298 0 3 22.9821 5.88358 15.379 
13290 0 3 25.6308 4.39296 16.7407 
24098 0 3 25.0125 0.987186 19.0823 
1090 0 3 25.2326 3.24328 19.157 
17876 0 3 25.5019 3.53106 20.1519 
22145 0 3 23.6531 4.37087 20.4906 
25201 0 3 24.5602 1.3963 22.306 
26840 0 3 27.7515 2.36356 21.3071 
24049 0 3 26.2489 3.7191 20.9496 
15812 0 3 22.6135 4.74013 22.3179 
8202 0 3 22.9979 1.56325 23.6264 
993 0 3 26.2315 2.56386 23.2241 
16732 0 3 26.2665 6.09268 23.003 
3987 0 3 26.9811 3.88169 32.0577 
7502 0 3 24.7972 4.8782 32.8569 
18445 0 3 24.7871 8.06013 1.18299 
10930 0 3 24.3314 9.22726 9.09882 
22390 0 3 23.5084 10.807 8.36276 
4909 0 3 22.8146 7.15493 10.8331 
16854 0 3 25.1683 7.82732 9.97618 
12664 0 3 24.7793 7.52733 11.9546 
13142 0 3 26.2885 11.2573 11.6778 
15207 0 3 24.5231 9.19576 14.3959 
8460 0 3 25.5026 9.34348 13.5846 
9102 0 3 24.4749 11.3547 13.6418 
9566 0 3 23.0756 7.0665 16.9995 
2694 0 3 25.7706 7.9554 17.1866 
5851 0 3 22.745 6.70682 20.7592 
22769 0 3 23.1361 10.5782 24.0455 
14497 0 3 25.2243 8.35944 30.7315 
15273 0 3 22.8435 6.92482 32.1213 
9168 0 3 26.5777 13.8438 2.44469 
3989 0 3 25.6397 13.3543 2.74644 
21196 0 3 25.3078 15.3075 5.10839 
24116 0 3 27.546 12.3645 7.07125 
9318 0 3 23.0855 16.3882 6.8188 
25762 0 3 27.4049 12.9309 8.29414 
24301 0 3 26.9266 14.3259 8.74587 
3768 0 3 24.5282 12.5491 10.6552 
3266 0 3 27.4275 12.2443 10.7443 
16898 0 3 25.6419 14.2141 11.443 
17101 0 3 24.5935 16.0968 10.3041 
19425 0 3 25.7987 12.0095 12.0886 
18900 0 3 26.4115 11.6795 13.1747 
5899 0 3 23.1532 12.3303 13.4446 
9433 0 3 22.8587 11.8493 14.5476 
19519 0 3 23.9055 15.3373 15.1647 
26935 0 3 22.4551 16.9411 23.2722 
24442 0 3 25.2708 11.8509 25.0285 
10955 0 3 24.092 15.6655 33.06 
3985 0 3 23.2976 17.1593 1.51599 
23016 0 3 23.0372 19.4908 2.96853 
17229 0 3 24.071 21.6745 3.14445 
10814 0 3 23.3415 17.4638 4.48683 
11626 0 3 27.0737 19.2741 5.50509 
14740 0 3 23.4049 17.7572 6.69829 
12214 0 3 22.7429 20.3902 7.3716 
20826 0 3 22.7252 17.9041 8.09657 
5846 0 3 23.1908 17.2367 8.85345 
20282 0 3 25.6512 18.8767 9.7526 
13949 0 3 27.7582 18.9485 11.2394 
6263 0 3 25.1848 17.2427 13.7971 
3812 0 3 24.5872 22.3065 16.3332 
19820 0 3 26.491 21.413 16.3657 
14571 0 3 23.4907 18.8666 18.2485 
4026 0 3 24.7692 21.9002 17.3654 
13693 0 3 23.9956 17.2938 20.9763 
3345 0 3 24.4302 21.879 29.2591 
8537 0 3 25.6784 20.2734 31.2313 
2078 0 3 26.2873 21.4778 29.8481 
9791 0 3 24.6586 19.32 32.0044 
25219 0 3 22.8541 20.9571 31.5558 
24769 0 3 23.6179 22.4115 31.4883 
681 0 3 25.9071 23.432 1.53004 
14919 0 3 27.7074 23.668 1.73603 
7842 0 3 24.8595 25.2908 0.804321 
19978 0 3 27.1999 27.0283 1.20928 
21258 0 3 25.5888 23.4439 2.859 
21212 0 3 24.1604 24.7988 3.36148 
5053 0 3 22.7636 23.6438 7.45538 
26621 0 3 26.6957 23.5281 9.59994 
18623 0 3 22.6314 24.4699 8.21607 
21305 0 3 24.2541 26.5273 9.09146 
15693 0 3 25.9079 24.3045 10.4516 
7833 0 3 23.0534 26.7985 11.5354 
5554 0 3 27.0247 26.9543 10.7582 
25162 0 3 25.2806 22.824 11.625 
24103 0 3 23.23 24.3063 14.6497 
14307 0 3 27.5546 23.6619 16.5839 
2897 0 3 25.9334 25.8348 16.4932 
12944 0 3 22.827 27.4373 16.5187 
7657 0 3 24.5527 25.3852 21.0469 
10478 0 3 24.8414 25.7095 25.0669 
26104 0 3 23.2334 22.8177 26.3403 
7510 0 3 27.1445 22.7132 27.556 
4468 0 3 27.2064 24.0356 26.0616 
17747 0 3 23.4966 27.138 26.1182 
18005 0 3 25.2177 26.9918 27.397 
24423 0 3 23.1414 26.6803 28.6239 
10823 0 3 23.8876 25.7235 30.569 
21132 0 3 27.406 24.7742 30.2197 
22704 0 3 25.8678 26.9979 31.4995 
18510 0 3 26.4941 29.7886 3.43428 
11577 0 3 23.9992 31.5995 2.87443 
26055 0 3 25.3412 30.488 4.89399 
17662 0 3 24.1335 30.9151 8.58632 
6219 0 3 23.6648 32.3171 8.06787 
1763 0 3 24.2367 29.7226 10.47 
24517 0 3 26.8337 31.1017 10.407 
17529 0 3 26.2709 29.673 10.2627 
5460 0 3 27.1787 28.9773 12.4213 
20932 0 3 26.3423 30.8168 11.5787 
13330 0 3 26.4504 29.4582 13.5413 
21795 0 3 22.5904 31.7798 14.931 
2491 0 3 23.1232 28.5229 16.449 
18600 0 3 23.0529 32.1677 16.9825 
4859 0 3 24.1826 31.4664 18.6392 
659 0 3 25.6904 32.3462 18.2799 
11865 0 3 24.9981 29.4941 18.9411 
14274 0 3 23.5538 30.7059 19.1109 
3997 0 3 26.5923 29.6908 19.5137 
25231 0 3 27.6876 31.1204 18.9729 
17618 0 3 27.5611 30.0912 19.8034 
4425 0 3 25.6916 30.0207 21.1134 
18446 0 3 23.8533 30.6266 22.4539 
9630 0 3 23.4094 31.5848 23.3718 
1266 0 3 24.6828 31.8345 23.202 
19420 0 3 27.216 28.1928 25.4762 
2294 0 3 25.3063 29.1336 26.5067 
14130 0 3 27.4493 29.8423 26.2679 
14907 0 3 25.4009 28.964 33.0042 
23344 0 3 27.7852 31.9355 33.1114 
16277 0 3 32.6002 4.29013 3.46848 
25616 0 3 32.5999 2.35874 6.07492 
8554 0 3 31.5858 3.3105 5.09106 
5330 0 3 32.8215 3.09905 5.21524 
13844 0 3 32.4532 5.86354 5.51993 
8453 0 3 31.5311 4.80379 7.58628 
17342 0 3 30.1529 0.864275 7.98584 
20947 0 3 31.4451 2.00892 8.42555 
16027 0 3 28.9092 5.2181 9.25747 
1363 0 3 30.6109 4.21477 11.0527 
19469 0 3 28.7506 2.08154 11.6465 
18101 0 3 29.8857 1.33304 11.8645 
17271 0 3 32.8602 1.33147 11.6669 
17498 0 3 32.4647 4.19287 12.9695 
16742 0 3 30.3858 3.80497 14.687 
22514 0 3 30.9586 4.68781 14.9816 
5432 0 3 32.8272 2.16766 16.1704 
19301 0 3 29.0837 2.73887 15.6127 
16504 0 3 30.6531 2.51396 17.7656 
20463 0 3 28.482 4.23939 18.2251 
5516 0 3 28.293 1.2994 18.9228 
18546 0 3 29.6385 1.32155 21.337 
1081 0 3 32.8169 2.59757 20.9191 
21379 0 3 31.0764 5.95979 21.389 
22987 0 3 30.4082 2.1779 25.8519 
24762 0 3 28.2664 2.84402 25.4814 
13181 0 3 31.0887 1.99989 27.0156 
3763 0 3 30.9739 2.91065 27.6643 
3602 0 3 32.5024 2.14749 28.6329 
24533 0 3 32.9469 3.05432 28.8908 
1767 0 3 28.8352 3.01365 31.1463 
2170 0 3 31.3212 2.58778 31.0827 
19704 0 3 32.4593 5.67503 30.472 
21755 0 3 29.838 2.47659 33.1198 
5111 0 3 32.6107 3.11976 31.9235 
26766 0 3 30.9151 6.21128 1.85226 
7436 0 3 30.4555 8.5611 1.82206 
18207 0 3 28.0016 11.2275 3.85207 
6305 0 3 30.7171 11.3271 2.62873 
17171 0 3 30.3558 10.4478 4.01177 
865 0 3 30.1536 8.09239 5.23237 
19846 0 3 28.0894 8.07961 7.62782 
26249 0 3 27.8455 10.759 7.4121 
720 0 3 32.2521 11.0224 7.77387 
550 0 3 30.3658 6.99831 8.04145 
6268 0 3 32.3255 9.24204 8.76869 
2176 0 3 29.7232 10.5484 10.1449 
21961 0 3 31.0697 7.32329 12.944 
11683 0 3 30.899 10.2279 13.6551 
12958 0 3 30.7739 7.94002 16.3809 
13630 0 3 29.4699 11.1093 15.8695 
24982 0 3 33.1464 9.80797 16.8388 
25891 0 3 32.6856 7.72361 17.5254 
14577 0 3 31.8433 9.30101 17.5543 
23938 0 3 28.7823 7.35321 18.8841 
4644 0 3 32.664 9.43242 21.267 
2473 0 3 29.8922 6.2011 23.9339 
6556 0 3 29.662 9.37083 23.0882 
16088 0 3 28.3989 9.80097 24.9141 
9295 0 3 32.2318 7.72347 29.954 
21 0 3 28.7012 7.37783 33.1146 
25534 0 3 31.4109 6.69428 32.7303 
5316 0 3 33.0398 6.87963 31.7617 
10924 0 3 27.8936 8.58412 32.9626 
15588 0 3 27.9762 15.2152 1.03038 
5256 0 3 29.936 13.4096 4.10297 
20639 0 3 32.3225 15.3143 3.43474 
13051 0 3 32.6955 16.3445 5.20358 
15717 0 3 32.4528 15.4188 6.1972 
10317 0 3 31.9074 13.1728 8.18678 
4312 0 3 30.5692 16.5882 9.34486 
19181 0 3 29.734 15.4541 9.24334 
24933 0 3 29.8042 13.1342 10.8641 
23400 0 3 29.3241 15.8574 10.7672 
16338 0 3 29.8143 16.7175 11.2856 
20676 0 3 28.3237 13.639 12.3075 
6277 0 3 31.9965 14.7405 12.9889 
4321 0 3 31.5386 12.6245 14.7963 
6757 0 3 32.1887 15.0581 15.1622 
13964 0 3 30.9742 15.9996 14.9898 
14302 0 3 30.8715 13.7127 16.328 
22371 0 3 32.5527 15.9204 15.5937 
17575 0 3 29.2661 15.9215 17.7015 
19585 0 3 31.0579 11.7837 19.8348 
3505 0 3 31.0492 15.6685 19.6401 
22409 0 3 31.8168 16.6226 18.8733 
4858 0 3 28.4932 12.0096 21.5151 
17248 0 3 31.1445 13.9491 21.1557 
4491 0 3 29.1301 12.378 22.6175 
20472 0 3 28.0211 14.7304 24.0774 
3449 0 3 28.8071 15.4111 23.5927 
7781 0 3 28.0433 16.7791 25.031 
12536 0 3 33.2404 15.4605 27.3085 
19834 0 3 28.118 14.2266 29.1282 
10901 0 3 28.1981 12.0431 32.4688 
6058 0 3 32.4155 13.1382 32.3917 
16403 0 3 29.9555 14.7373 31.87 
14550 0 3 29.9832 18.1293 3.17278 
19464 0 3 32.037 17.0918 2.94988 
17874 0 3 29.0636 20.2094 3.05571 
7915 0 3 30.2872 21.8419 3.95172 
524 0 3 29.1997 19.6477 5.63945 
13095 0 3 29.4058 20.8112 5.54514 
7576 0 3 27.8839 21.1636 6.99205 
7527 0 3 30.8964 22.1403 6.6343 
7298 0 3 30.2745 17.4852 8.91092 
5203 0 3 30.8037 19.7772 9.51688 
18096 0 3 28.5726 19.9295 12.9498 
13701 0 3 30.2488 20.2753 13.3247 
10087 0 3 30.904 21.9314 12.172 
15180 0 3 28.3751 20.5305 13.7628 
16668 0 3 30.1427 20.3552 14.3923 
1917 0 3 29.6071 17.1581 15.9312 
3215 0 3 29.9792 19.2768 17.2774 
26258 0 3 28.8728 21.3646 18.1255 
3251 0 3 33.0512 21.7176 19.4176 
2714 0 3 32.4353 18.6983 25.7156 
16633 0 3 28.4755 19.8196 28.289 
22073 0 3 32.3529 20.0399 28.8758 
21310 0 3 28.6249 19.3799 30.5298 
20346 0 3 32.9063 21.2262 30.5346 
11943 0 3 31.9428 20.2387 33.1107 
26601 0 3 31.5884 20.7122 32.2267 
24187 0 3 29.4746 22.871 0.755315 
26927 0 3 30.9745 23.7156 2.14644 
14214 0 3 32.5558 24.225 1.49241 
22752 0 3 28.1725 27.4764 1.07677 
12589 0 3 31.2764 27.0931 0.737431 
21459 0 3 31.5531 23.5499 3.09612 
7767 0 3 29.7025 26.515 4.12403 
20751 0 3 31.8002 24.6184 4.77637 
18763 0 3 32.7527 24.8924 5.42204 
16267 0 3 28.9444 26.307 4.91972 
10038 0 3 28.2065 27.1499 4.87402 
22143 0 3 31.8405 24.1532 7.74295 
13440 0 3 32.3907 22.6443 8.10867 
18974 0 3 28.3825 27.6784 9.80055 
6204 0 3 28.5392 25.9629 12.0673 
7239 0 3 32.1476 23.7723 14.7351 
382 0 3 30.2012 25.7412 16.1766 
20155 0 3 31.6065 27.0907 15.5369 
7697 0 3 32.0006 25.8651 18.041 
9823 0 3 28.0394 24.2712 20.8586 
9706 0 3 33.2391 25.9307 21.1316 
7830 0 3 28.6264 25.1777 22.9151 
4787 0 3 29.3905 26.4885 23.2255 
19369 0 3 30.7498 23.1816 24.5733 
12845 0 3 30.2447 22.767 25.695 
15580 0 3 32.6742 22.9886 25.3729 
12010 0 3 32.4766 26.9886 24.495 
15051 0 3 32.7337 24.2157 27.1004 
20459 0 3 30.34 23.4026 29.1268 
1242 0 3 31.706 24.1989 28.3769 
1140 0 3 33.222 25.0141 29.1864 
15394 0 3 30.9968 27.0426 28.5352 
1250 0 3 32.8908 26.2434 31.6602 
5502 0 3 31.9124 30.3394 2.16822 
5525 0 3 33.0561 30.2923 1.81701 
3716 0 3 30.7561 29.1406 2.81771 
4466 0 3 28.9907 32.7386 3.55298 
3218 0 3 28.3155 31.9393 2.57063 
2763 0 3 28.0925 30.5881 4.36873 