LAMMPS (3 Mar 2020)
OMP_NUM_THREADS environment is not set. Defaulting to 1 thread. (src/comm.cpp:94)
  using 1 OpenMP thread(s) per MPI task
Reading restart file ...
  restart file = 3 Mar 2020, LAMMPS = 3 Mar 2020
  restoring atom style full from restart
  orthogonal box = (0.73598 0.73598 0.73598) to (33.264 33.264 33.264)
  6 by 6 by 6 MPI processor grid
  restoring pair style hybrid/overlay from restart
  restoring bond style fene from restart
  27950 atoms
  8700 bonds
Finding 1-2 1-3 1-4 neighbors ...
  special bond factors lj:   0          1          1         
  special bond factors coul: 0          1          1         
  2 = max # of 1-2 neighbors
  6 = max # of special neighbors
  special bonds CPU = 2.45471 secs
  read_restart CPU = 2.63895 secs
Resetting global fix info from restart file:
  fix style: nvt, fix ID: pt
50 rigid bodies with 950 atoms
Resetting global fix info from restart file:
  fix style: rigid/nvt, fix ID: ri
System init for write_data ...
PPPM initialization ...
  using 12-bit tables for long-range coulomb (src/kspace.cpp:332)
  G vector (1/distance) = 1.0914
  grid = 75 75 75
  stencil order = 5
  estimated absolute RMS force accuracy = 0.000124342
  estimated relative force accuracy = 0.000124342
  using double precision FFTW3
  3d grid and FFT values/proc = 5832 2625
All restart file global fix info was re-assigned
Unused restart file peratom fix info:
  fix style: STORE, fix ID: par_COMPUTE_STORE
WARNING: Neighbor exclusions used with KSpace solver may give inconsistent Coulombic energies (src/neighbor.cpp:486)
Neighbor list info ...
  update every 1 steps, delay 0 steps, check yes
  max neighbors/atom: 2000, page size: 100000
  master list distance cutoff = 2.8
  ghost atom cutoff = 2.8
  binsize = 1.4, bins = 24 24 24
  2 neighbor lists, perpetual/occasional/extra = 2 0 0
  (1) pair lj/cut, perpetual
      attributes: half, newton on
      pair build: half/bin/newton
      stencil: half/bin/3d/newton
      bin: standard
  (2) pair coul/long, perpetual, skip from (1)
      attributes: half, newton on
      pair build: skip
      stencil: none
      bin: none
PPPM initialization ...
  using 12-bit tables for long-range coulomb (src/kspace.cpp:332)
  G vector (1/distance) = 1.0914
  grid = 75 75 75
  stencil order = 5
  estimated absolute RMS force accuracy = 0.000124342
  estimated relative force accuracy = 0.000124342
  using double precision FFTW3
  3d grid and FFT values/proc = 5832 2625
WARNING: Neighbor exclusions used with KSpace solver may give inconsistent Coulombic energies (src/neighbor.cpp:486)
Neighbor list info ...
  update every 1 steps, delay 0 steps, check yes
  max neighbors/atom: 2000, page size: 100000
  master list distance cutoff = 2.8
  ghost atom cutoff = 2.8
  binsize = 1.4, bins = 24 24 24
  2 neighbor lists, perpetual/occasional/extra = 2 0 0
  (1) pair lj/cut, perpetual
      attributes: half, newton on
      pair build: half/bin/newton
      stencil: half/bin/3d/newton
      bin: standard
  (2) pair coul/long, perpetual, skip from (1)
      attributes: half, newton on
      pair build: skip
      stencil: none
      bin: none
Setting up Verlet run ...
  Unit style    : lj
  Current step  : 12000000
  Time step     : 0.005
Per MPI rank memory allocation (min/avg/max) = 9.931 | 9.995 | 10.14 Mbytes
Step Temp Press Volume 
12000000   0.80118007  -0.19953599    34417.053 
12010000   0.79389397 -0.074697465    34417.053 
12020000    0.8054245 -0.056282253    34417.053 
12030000    0.7997853 -0.033978485    34417.053 
12040000   0.80163365  -0.12698791    34417.053 
12050000   0.79639676  -0.11117545    34417.053 
12060000   0.80070009 -0.086253768    34417.053 
12070000   0.79911896 -0.085556978    34417.053 
12080000   0.80192512 -0.037727103    34417.053 
12090000   0.80291886  -0.15352662    34417.053 
12100000   0.79457053 -0.063784274    34417.053 
12110000   0.80361009 -0.091880853    34417.053 
12120000   0.80589987  -0.10722195    34417.053 
12130000   0.79515916 -0.058437795    34417.053 
12140000   0.79704989  -0.20771576    34417.053 
12150000    0.8074828 -0.076113421    34417.053 
12160000   0.80445219 -0.084577897    34417.053 
12170000   0.80965256 -0.080129884    34417.053 
12180000   0.79819053  -0.13152757    34417.053 
12190000   0.79608836   -0.1358581    34417.053 
12200000   0.79928292  -0.11032413    34417.053 
12210000   0.80612033  -0.06238853    34417.053 
12220000   0.79632092 -0.059507644    34417.053 
12230000   0.79828789 -0.060672708    34417.053 
12240000   0.79534017 -0.059220854    34417.053 
12250000   0.80534545   -0.1229009    34417.053 
12260000   0.79332232 -0.096215112    34417.053 
12270000   0.80907505  -0.11494664    34417.053 
12280000   0.79672387  -0.10547153    34417.053 
12290000   0.80365602   -0.1189749    34417.053 
12300000   0.79559856   -0.0863709    34417.053 
12310000   0.79791209 -0.063811291    34417.053 
12320000   0.79683465  -0.15127337    34417.053 
12330000   0.79445029  -0.08404964    34417.053 
12340000   0.79752187 -0.078984615    34417.053 
12350000   0.79806855 -0.071852677    34417.053 
12360000   0.80691391 -0.075972186    34417.053 
12370000   0.79886974 -0.092646417    34417.053 
12380000   0.80497275   -0.1137585    34417.053 
12390000   0.80290668  -0.10690759    34417.053 
12400000   0.79473933 -0.036482695    34417.053 
12410000   0.80439847 -0.050793716    34417.053 
12420000   0.80061931  -0.10967127    34417.053 
12430000   0.79331673 -0.061829942    34417.053 
12440000   0.80213485  -0.11290174    34417.053 
12450000   0.80229743  -0.15108688    34417.053 
12460000    0.7975993 -0.011323154    34417.053 
12470000   0.80649107  -0.14531635    34417.053 
12480000   0.79848098 -0.068702455    34417.053 
12490000   0.80035678 -0.077110119    34417.053 
12500000   0.80332982  -0.13127444    34417.053 
12510000   0.80279398  -0.10754171    34417.053 
12520000   0.80417474  -0.10020973    34417.053 
12530000   0.79753159   -0.1785295    34417.053 
12540000    0.7957441   -0.1584979    34417.053 
12550000   0.79994198 -0.065413827    34417.053 
12560000   0.79283601  -0.15287658    34417.053 
12570000   0.80042409 -0.057783941    34417.053 
12580000   0.79839231  -0.16069036    34417.053 
12590000   0.80414819 -0.059477063    34417.053 
12600000   0.80133638 -0.094683412    34417.053 
12610000   0.79231197 -0.098638507    34417.053 
12620000   0.79530042  -0.10560088    34417.053 
12630000   0.80360406  -0.04622101    34417.053 
12640000   0.80327265  -0.12794954    34417.053 
12650000   0.80821874  -0.12341782    34417.053 
12660000   0.79972015 -0.084457844    34417.053 
12670000    0.8048294  -0.11040238    34417.053 
12680000   0.80169814 -0.095128984    34417.053 
12690000    0.7996574   -0.1283149    34417.053 
12700000   0.80210883  -0.13918349    34417.053 
12710000     0.804957  -0.12167871    34417.053 
12720000   0.79729343  -0.10305097    34417.053 
12730000   0.80232262 -0.099888632    34417.053 
12740000   0.80052976  -0.10735368    34417.053 
12750000   0.80608423  -0.10795089    34417.053 
12760000   0.80002493 -0.058979243    34417.053 
12770000   0.79811059 -0.097116939    34417.053 
12780000   0.80141073  -0.17734261    34417.053 
12790000   0.79138143 -0.054066399    34417.053 
12800000    0.7960093  -0.16441568    34417.053 
12810000   0.79564591  -0.16058126    34417.053 
12820000   0.79823145 -0.064266375    34417.053 
12830000   0.79968023  -0.04952204    34417.053 
12840000     0.795331  -0.11845004    34417.053 
12850000   0.80261789 -0.044768983    34417.053 
12860000   0.79285742  -0.12098624    34417.053 
12870000   0.79696115 -0.072007507    34417.053 
12880000   0.80620824  -0.10080325    34417.053 
12890000   0.80321258  -0.11191958    34417.053 
12900000    0.8040549 -0.070932756    34417.053 
12910000    0.8037185 -0.078189122    34417.053 
12920000   0.80072489 -0.096724257    34417.053 
12930000   0.80172307  -0.12885238    34417.053 
12940000   0.79753395 -0.065502937    34417.053 
12950000   0.79413124 -0.081323159    34417.053 
12960000   0.80203543  -0.13346248    34417.053 
12970000   0.80529425  -0.12412264    34417.053 
12980000   0.80100395 -0.045480781    34417.053 
12990000   0.80023031  -0.10036816    34417.053 
13000000   0.79777506  -0.10064626    34417.053 
Loop time of 7384.2 on 216 procs for 1000000 steps with 27950 atoms

Performance: 58503.309 tau/day, 135.424 timesteps/s
99.9% CPU use with 216 MPI tasks x 1 OpenMP threads

MPI task timing breakdown:
Section |  min time  |  avg time  |  max time  |%varavg| %total
---------------------------------------------------------------
Pair    | 73.853     | 104.51     | 206.71     | 261.6 |  1.42
Bond    | 0.34818    | 1.6576     | 3.4925     |  65.3 |  0.02
Kspace  | 6211.3     | 6431.1     | 6583.5     |  97.1 | 87.09
Neigh   | 127.51     | 132.99     | 139.61     |  22.1 |  1.80
Comm    | 227.11     | 318.77     | 460.81     | 281.5 |  4.32
Output  | 0.011412   | 0.01464    | 0.02928    |   1.4 |  0.00
Modify  | 212.7      | 303.51     | 406.57     | 280.6 |  4.11
Other   |            | 91.67      |            |       |  1.24

Nlocal:    129.398 ave 248 max 100 min
Histogram: 25 104 56 17 8 4 1 0 0 1
Nghost:    957.403 ave 1124 max 840 min
Histogram: 22 31 25 26 31 29 22 15 11 4
Neighs:    4803.83 ave 13670 max 2912 min
Histogram: 61 85 47 11 9 1 1 0 0 1

Total # of neighbors = 1037628
Ave neighs/atom = 37.1244
Ave special neighs/atom = 0.62254
Neighbor list builds = 134510
Dangerous builds = 0
PPPM initialization ...
  using 12-bit tables for long-range coulomb (src/kspace.cpp:332)
  G vector (1/distance) = 1.0914
  grid = 75 75 75
  stencil order = 5
  estimated absolute RMS force accuracy = 0.000124342
  estimated relative force accuracy = 0.000124342
  using double precision FFTW3
  3d grid and FFT values/proc = 5832 2625
WARNING: Neighbor exclusions used with KSpace solver may give inconsistent Coulombic energies (src/neighbor.cpp:486)
Neighbor list info ...
  update every 1 steps, delay 0 steps, check yes
  max neighbors/atom: 2000, page size: 100000
  master list distance cutoff = 2.8
  ghost atom cutoff = 2.8
  binsize = 1.4, bins = 24 24 24
  12 neighbor lists, perpetual/occasional/extra = 2 10 0
  (1) pair lj/cut, perpetual
      attributes: half, newton on
      pair build: half/bin/newton
      stencil: half/bin/3d/newton
      bin: standard
  (2) pair coul/long, perpetual, skip from (1)
      attributes: half, newton on
      pair build: skip
      stencil: none
      bin: none
  (3) compute rdf, occasional, copy from (1)
      attributes: half, newton on
      pair build: copy
      stencil: none
      bin: none
  (4) compute rdf, occasional, copy from (1)
      attributes: half, newton on
      pair build: copy
      stencil: none
      bin: none
  (5) compute rdf, occasional, copy from (1)
      attributes: half, newton on
      pair build: copy
      stencil: none
      bin: none
  (6) compute rdf, occasional, copy from (1)
      attributes: half, newton on
      pair build: copy
      stencil: none
      bin: none
  (7) compute rdf, occasional, copy from (1)
      attributes: half, newton on
      pair build: copy
      stencil: none
      bin: none
  (8) compute rdf, occasional, copy from (1)
      attributes: half, newton on
      pair build: copy
      stencil: none
      bin: none
  (9) compute rdf, occasional, copy from (1)
      attributes: half, newton on
      pair build: copy
      stencil: none
      bin: none
  (10) compute rdf, occasional, copy from (1)
      attributes: half, newton on
      pair build: copy
      stencil: none
      bin: none
  (11) compute rdf, occasional, copy from (1)
      attributes: half, newton on
      pair build: copy
      stencil: none
      bin: none
  (12) compute rdf, occasional, copy from (1)
      attributes: half, newton on
      pair build: copy
      stencil: none
      bin: none
Setting up Verlet run ...
  Unit style    : lj
  Current step  : 0
  Time step     : 0.005
WARNING: One or more chunks do not contain all atoms in molecule (src/compute_chunk_atom.cpp:1163)
Per MPI rank memory allocation (min/avg/max) = 17.5 | 18.79 | 19.69 Mbytes
Step Temp Press PotEng KinEng E_pair E_bond TotEng 
       0   0.79777506 -0.072292444   0.87467353    1.1602275   -5.5380468    6.4127203    2.0349011 
   10000   0.79797257 -0.066432141   0.88114706    1.1605148   -5.5339114    6.4150585    2.0416618 
   20000   0.79551142 -0.042131777   0.87461202    1.1569355   -5.5403911    6.4150031    2.0315475 
   30000   0.79909753  -0.11757935   0.87051005    1.1621508    -5.543263    6.4137731    2.0326609 
   40000    0.7930802  -0.05815205    0.8799816    1.1533997   -5.5338635    6.4138451    2.0333813 
   50000   0.79883904 -0.069443566   0.87321554    1.1617749   -5.5419692    6.4151847    2.0349905 
   60000   0.80228582  -0.10137422   0.87500015    1.1667877   -5.5404213    6.4154214    2.0417878 
   70000   0.80446477  -0.10616136   0.86937787    1.1699566   -5.5411627    6.4105405    2.0393344 
   80000    0.8032677 -0.048739716    0.8740928    1.1682156   -5.5431897    6.4172825    2.0423084 
   90000   0.80302705 -0.090190358   0.87299398    1.1678657   -5.5391705    6.4121645    2.0408596 
  100000   0.79981956 -0.066496378   0.87553486    1.1632009   -5.5372371    6.4127719    2.0387358 
  110000    0.7954681  -0.04084446   0.87240335    1.1568725   -5.5412309    6.4136342    2.0292758 
  120000   0.79595286  -0.14044539   0.87625593    1.1575775   -5.5385783    6.4148342    2.0338334 
  130000   0.80084535 -0.080597276    0.8680824    1.1646927   -5.5464868    6.4145692    2.0327751 
  140000   0.80066949 -0.058082423   0.87032826     1.164437   -5.5468043    6.4171326    2.0347652 
  150000    0.7995978 -0.050354272   0.86380768    1.1628784   -5.5503214    6.4141291    2.0266861 
  160000   0.79718115  -0.16770248   0.86835167    1.1593638   -5.5450621    6.4134138    2.0277155 
  170000   0.79904975  -0.07186971   0.86847332    1.1620814   -5.5443548    6.4128281    2.0305547 
  180000   0.80044799 -0.076815861   0.86128546    1.1641148    -5.549437    6.4107224    2.0254003 
  190000   0.80677553 -0.086171956   0.86831774    1.1733172   -5.5436497    6.4119674    2.0416349 
  200000   0.79735949 -0.096764708    0.8730251    1.1596232   -5.5393123    6.4123374    2.0326483 
  210000   0.79879436  -0.10535877    0.8697112    1.1617099   -5.5415022    6.4112134    2.0314211 
  220000   0.79622207 -0.044790923   0.87319753     1.157969   -5.5407812    6.4139787    2.0311665 
  230000   0.79678623 -0.012473843    0.8730706    1.1587894   -5.5391272    6.4121978    2.0318601 
  240000   0.80259057 -0.066277951   0.87633971    1.1672309   -5.5419575    6.4182972    2.0435706 
  250000   0.79462126 -0.078947564    0.8684552    1.1556409   -5.5455427    6.4139979    2.0240961 
  260000   0.79971525 -0.037768703   0.86990411    1.1630492   -5.5433089     6.413213    2.0329533 
  270000   0.79086951 -0.084233893    0.8661964    1.1501846    -5.547193    6.4133894     2.016381 
  280000   0.79502832  -0.14754406   0.86244383    1.1562329   -5.5515278    6.4139717    2.0186767 
  290000   0.79725002  -0.14764355   0.86777756    1.1594639    -5.550013    6.4177905    2.0272415 
  300000     0.798419  -0.04904705   0.87831538     1.161164   -5.5365729    6.4148883    2.0394794 
  310000   0.79143132  -0.13691085    0.8632234    1.1510016   -5.5517134    6.4149368     2.014225 
  320000   0.79514172  -0.11891865   0.87172858    1.1563978   -5.5421538    6.4138824    2.0281264 
  330000   0.80315489 -0.079007894      0.87114    1.1680516   -5.5438442    6.4149842    2.0391916 
  340000    0.8013315 -0.012841705   0.88024347    1.1653998   -5.5319589    6.4122023    2.0456432 
  350000   0.79789732  -0.12048943   0.87104455    1.1604053   -5.5443128    6.4153574    2.0314499 
  360000   0.79622749 -0.077349922   0.87544887    1.1579769   -5.5435283    6.4189772    2.0334257 
  370000   0.80411585  -0.14236335   0.86996147    1.1694491   -5.5441552    6.4141167    2.0394106 
  380000   0.79925008  -0.10918368   0.86176085    1.1623727   -5.5495766    6.4113375    2.0241335 
  390000   0.79589946 -0.088772799   0.87480787    1.1574998   -5.5427789    6.4175867    2.0323077 
  400000   0.79783525  -0.11882228   0.87071859    1.1603151   -5.5407771    6.4114956    2.0310337 
  410000   0.79617938  -0.11314717   0.86935761    1.1579069   -5.5464373    6.4157949    2.0272645 
  420000   0.80480641  -0.14300562   0.86202425    1.1704534   -5.5507828    6.4128071    2.0324777 
  430000   0.79814957 -0.094189374   0.86544408    1.1607722   -5.5477456    6.4131896    2.0262163 
  440000   0.79729834 -0.062664378   0.87027806    1.1595342   -5.5465756    6.4168536    2.0298123 
  450000    0.7998851 -0.070437287   0.87897122    1.1632962   -5.5362558     6.415227    2.0422674 
  460000   0.80119929 -0.051083053    0.8760641    1.1652075   -5.5386503    6.4147144    2.0412716 
  470000   0.80363688 -0.086220409    0.8728963    1.1687526   -5.5408514    6.4137477    2.0416489 
  480000   0.79690395 -0.065257209   0.87051723    1.1589606   -5.5421551    6.4126723    2.0294779 
  490000   0.79589929  -0.10530794   0.87317847    1.1574996   -5.5385513    6.4117297     2.030678 
  500000     0.800277 -0.045253929   0.87076766    1.1638662   -5.5424722    6.4132399    2.0346338 
  510000   0.80403988  -0.10590629   0.86809986    1.1693386   -5.5469054    6.4150052    2.0374385 
  520000   0.79867734  -0.13487511   0.86411216    1.1615397   -5.5515229    6.4156351    2.0256519 
  530000   0.79766137 -0.085118696   0.87075071    1.1600622   -5.5414401    6.4121908    2.0308129 
  540000   0.80324435 -0.055550349   0.86663289    1.1681817   -5.5483089    6.4149418    2.0348146 
  550000   0.80484003  -0.13782935   0.86495766    1.1705023   -5.5488284    6.4137861      2.03546 
  560000   0.79393583  -0.13454525   0.86024372     1.154644   -5.5541202    6.4143639    2.0148877 
  570000   0.79991614  -0.12012561   0.86233694    1.1633414   -5.5513556    6.4136926    2.0256783 
  580000   0.80533793 -0.042884102   0.86646405    1.1712264   -5.5498968    6.4163609    2.0376905 
  590000   0.79835432 -0.084643641   0.86932106      1.16107   -5.5428075    6.4121285     2.030391 
  600000   0.80185959 -0.038169375   0.87124607    1.1661678   -5.5410117    6.4122578    2.0374139 
  610000   0.80545504 -0.052721004   0.87529861    1.1713967   -5.5423978    6.4176964    2.0466954 
  620000   0.80150291  -0.14505225   0.86393495     1.165649   -5.5491808    6.4131158     2.029584 
  630000   0.80135602 -0.039021047   0.85971233    1.1654354   -5.5521142    6.4118265    2.0251477 
  640000   0.79528679 -0.075132905   0.87133054    1.1566088   -5.5432753    6.4146058    2.0279393 
  650000   0.80267554 -0.077760377   0.87424122    1.1673544   -5.5412337    6.4154749    2.0415957 
  660000   0.80518326 -0.090313416   0.87195069    1.1710015   -5.5441839    6.4161346    2.0429522 
  670000    0.7979625  -0.15565021   0.86675485    1.1605001   -5.5455698    6.4123247     2.027255 
  680000   0.80440949  -0.11543601    0.8711163    1.1698762   -5.5412652    6.4123815    2.0409925 
  690000   0.79291882 -0.058289064   0.86815985     1.153165   -5.5458303    6.4139902    2.0213248 
  700000   0.80429897 -0.079510257   0.87326135    1.1697154   -5.5405508    6.4138121    2.0429768 
  710000   0.80492283  -0.14401481   0.86377928    1.1706227   -5.5541349    6.4179142     2.034402 
  720000   0.80044642 -0.084070053   0.87050891    1.1641126   -5.5428686    6.4133775    2.0346215 
  730000   0.80378464 -0.093756873   0.86597604    1.1689674   -5.5481424    6.4141185    2.0349435 
  740000   0.80120311 -0.093477994   0.86934575     1.165213   -5.5473126    6.4166584    2.0345588 
  750000    0.8037363   -0.1082236   0.86051713    1.1688971   -5.5536994    6.4142165    2.0294143 
  760000   0.79586729  -0.12974548   0.86941658     1.157453   -5.5452707    6.4146873    2.0268696 
  770000    0.8022206  -0.12635588    0.8631109    1.1666928   -5.5518449    6.4149558    2.0298037 
  780000   0.80570847 -0.059301698   0.86894844    1.1717653   -5.5477885    6.4167369    2.0407138 
  790000   0.79806083 -0.060247931   0.86564071    1.1606431   -5.5481674    6.4138081    2.0262838 
  800000   0.80167995  -0.12838983   0.86851938    1.1659065   -5.5480196     6.416539    2.0344259 
  810000    0.8046724  -0.12104838   0.86752435    1.1702585    -5.546029    6.4135534    2.0377829 
  820000   0.80421263  -0.12521831   0.85969106    1.1695899   -5.5528532    6.4125442    2.0292809 
  830000   0.80548076 -0.052251468   0.86610712    1.1714342   -5.5469012    6.4130084    2.0375413 
  840000   0.81092461  -0.10607054   0.86484044    1.1793513   -5.5470587    6.4118991    2.0441917 
  850000   0.80245362 -0.070594727   0.86606506    1.1670317   -5.5486483    6.4147134    2.0330968 
  860000   0.80802769  -0.10731735   0.87057799    1.1751382   -5.5447971     6.415375    2.0457162 
  870000   0.79262901 -0.074340697   0.86957615    1.1527435   -5.5465586    6.4161347    2.0223196 
  880000   0.80205353  -0.10459511   0.85841945    1.1664498   -5.5565547    6.4149742    2.0248693 
  890000   0.80613285 -0.088341317   0.86761067    1.1723825   -5.5464831    6.4140938    2.0399932 
  900000   0.79452218  -0.11542369   0.86344765    1.1554968   -5.5485507    6.4119983    2.0189444 
  910000   0.80316327 -0.074247434   0.86259445    1.1680638   -5.5520405    6.4146349    2.0306582 
  920000   0.80376948  -0.13858802   0.86464265    1.1689454   -5.5525109    6.4171535     2.033588 
  930000   0.80634911  -0.01462956   0.86011037     1.172697   -5.5554613    6.4155717    2.0328074 
  940000   0.79870421  -0.06631575   0.86114578    1.1615788   -5.5534614    6.4146071    2.0227246 
  950000   0.79496712 -0.069952183   0.87270164    1.1561439   -5.5422726    6.4149743    2.0288455 
  960000   0.79923983 -0.042418795   0.86589221    1.1623578   -5.5477264    6.4136186      2.02825 
  970000   0.80638032 -0.087759724   0.86835548    1.1727424   -5.5450926    6.4134481    2.0410979 
  980000   0.79816519 -0.092122365    0.8713022    1.1607949   -5.5449048    6.4162071    2.0320971 
  990000   0.80217369 -0.099261725   0.85679344    1.1666246   -5.5552797    6.4120731     2.023418 
 1000000   0.79950279 -0.064584641   0.86693844    1.1627402   -5.5471209    6.4140593    2.0296787 
 1010000   0.79496514 -0.087705615   0.86620114     1.156141   -5.5510068    6.4172079    2.0223421 
 1020000    0.8009341  -0.10046205   0.86285619    1.1648218   -5.5514057    6.4142619     2.027678 
 1030000    0.7978214  -0.10286461   0.86968962    1.1602949   -5.5429376    6.4126272    2.0299845 
 1040000   0.80230451 -0.079962915    0.8564997    1.1668148   -5.5555677    6.4120674    2.0233145 
 1050000    0.7927496  -0.16363654   0.86702733    1.1529189   -5.5474905    6.4145178    2.0199462 
 1060000   0.79958296 -0.095797762   0.86777006    1.1628568   -5.5462798    6.4140498    2.0306269 
 1070000   0.80621744 -0.074249516   0.86958643    1.1725055   -5.5457874    6.4153738     2.042092 
 1080000   0.80242338 -0.097113207   0.87139461    1.1669877   -5.5412273    6.4126219    2.0383823 
 1090000   0.79970008 -0.071994246   0.86057707    1.1630272   -5.5532184    6.4137955    2.0236042 
 1100000   0.79645508 -0.025889216   0.86649843    1.1583079   -5.5459721    6.4124705    2.0248063 
 1110000   0.80687048 -0.078520077   0.87021226    1.1734553   -5.5409373    6.4111495    2.0436675 
 1120000   0.79965083  -0.10345769   0.86051893    1.1629555   -5.5543396    6.4148585    2.0234744 
 1130000   0.80425308 -0.0077371316   0.86852641    1.1696487   -5.5463163    6.4148427    2.0381751 
 1140000   0.80363046  -0.10289957    0.8631424    1.1687432   -5.5552749    6.4184173    2.0318856 
 1150000    0.8085529  -0.11956298   0.86251428    1.1759021   -5.5524347     6.414949    2.0384163 
 1160000     0.796509 -0.046581319   0.86093228    1.1583863   -5.5505717     6.411504    2.0193185 
 1170000   0.79879566  -0.11232066   0.85433064    1.1617118   -5.5602645    6.4145952    2.0160425 
 1180000   0.80144849  -0.12793331   0.86106902    1.1655699   -5.5520908    6.4131598    2.0266389 
 1190000   0.79842427  -0.13504203   0.86061673    1.1611717   -5.5547139    6.4153306    2.0217884 
 1200000    0.7954818  -0.10437165     0.872339    1.1568924    -5.544274     6.416613    2.0292314 
 1210000   0.79648014  -0.14905186   0.85742811    1.1583443   -5.5576698    6.4150979    2.0157724 
 1220000   0.79488493 -0.088685975   0.86858571    1.1560243   -5.5479613     6.416547      2.02461 
 1230000   0.80104082  -0.08612817   0.86718572     1.164977    -5.546617    6.4138027    2.0321627 
 1240000   0.79906545 -0.067898676    0.8663021    1.1621042   -5.5482919     6.414594    2.0284063 
 1250000   0.80010213 -0.096767669   0.85906187    1.1636119   -5.5544093    6.4134712    2.0226737 
 1260000   0.80383171 -0.090282753   0.86512165    1.1690359   -5.5506681    6.4157898    2.0341575 
 1270000   0.80058292 -0.086950911   0.85552735    1.1643111   -5.5586491    6.4141764    2.0198384 
 1280000   0.80372394 -0.085510869   0.86106517    1.1688792   -5.5532522    6.4143174    2.0299443 
 1290000   0.79654023  -0.11366192   0.86574791    1.1584317   -5.5465174    6.4122654    2.0241796 
 1300000   0.79926705  -0.13383049   0.85444782    1.1623974   -5.5596595    6.4141073    2.0168452 
 1310000   0.80201204   -0.0655233   0.85835832    1.1663895   -5.5527057     6.411064    2.0247478 
 1320000   0.80258933   -0.1636697   0.85937884    1.1672291   -5.5555161    6.4148949    2.0266079 
 1330000   0.80156078  -0.11318819   0.85966231    1.1657332   -5.5537082    6.4133705    2.0253955 
 1340000   0.79874554  -0.12625255   0.86919719    1.1616389   -5.5467363    6.4159335    2.0308361 
 1350000   0.79916908  -0.11716766   0.85433386    1.1622549   -5.5583618    6.4126956    2.0165888 
 1360000   0.79581934 -0.094856489   0.86605557    1.1573833   -5.5473198    6.4133753    2.0234388 
 1370000   0.80541364  -0.12659634   0.85418525    1.1713365   -5.5585124    6.4126976    2.0255218 
 1380000   0.80144789 0.0070264957   0.85683814     1.165569   -5.5557537    6.4125919    2.0224072 
 1390000   0.79938039 -0.085129727   0.86380147    1.1625622    -5.548311    6.4121125    2.0263637 
 1400000   0.80238847  -0.10102688   0.86150949    1.1669369    -5.555073    6.4165825    2.0284464 
 1410000   0.80042508  -0.13830636   0.85862512    1.1640815   -5.5563358    6.4149609    2.0227067 
 1420000   0.79277415  -0.14116745   0.86700772    1.1529546   -5.5483863     6.415394    2.0199623 
 1430000   0.79298435   -0.1237703   0.86490146    1.1532603   -5.5504135    6.4153149    2.0181617 
 1440000   0.80563785 -0.014857821   0.87629754    1.1716626   -5.5418663    6.4181638    2.0479602 
 1450000   0.80770831  -0.19113322    0.8515757    1.1746737   -5.5622258    6.4138015    2.0262494 
 1460000   0.80090687 -0.084769462   0.86283243    1.1647822   -5.5479985    6.4108309    2.0276146 
 1470000   0.80937325 -0.062421319   0.86172167    1.1770951   -5.5523684    6.4140901    2.0388168 
 1480000   0.79206559  -0.11451476   0.86369757    1.1519241   -5.5495429    6.4132405    2.0156217 
 1490000   0.80248727 -0.097640786   0.86676957    1.1670806   -5.5464603    6.4132299    2.0338502 
 1500000    0.7972525  -0.13701322   0.86025545    1.1594676   -5.5554145      6.41567     2.019723 
 1510000   0.80318402 -0.070606032   0.85898661    1.1680939   -5.5525826    6.4115692    2.0270805 
 1520000   0.80434517  -0.05734729    0.8653583    1.1697826   -5.5488377     6.414196    2.0351409 
 1530000    0.8044466 -0.018150108   0.86223417    1.1699302   -5.5524155    6.4146496    2.0321643 
 1540000   0.79407418 -0.088685762   0.86427843    1.1548452   -5.5506811    6.4149595    2.0191237 
 1550000   0.80400313 -0.070333014   0.86210665    1.1692852   -5.5524129    6.4145196    2.0313918 
 1560000   0.79832849 -0.034503297    0.8674201    1.1610324   -5.5452556    6.4126757    2.0284525 
 1570000   0.80197748  -0.15640055   0.86661842    1.1663392    -5.549501    6.4161195    2.0329576 
 1580000   0.80256588 -0.088452335   0.86402527     1.167195   -5.5478854    6.4119106    2.0312202 
 1590000   0.79592134 -0.096456286   0.86666662    1.1575316   -5.5475348    6.4142014    2.0241982 
 1600000   0.79758673  -0.12665444   0.85723223    1.1599536   -5.5571301    6.4143624    2.0171859 
 1610000   0.79669212  -0.12392966    0.8531757    1.1586526   -5.5584306    6.4116063    2.0118283 
 1620000   0.79687245 -0.091823306   0.85441849    1.1589148   -5.5570908    6.4115093    2.0133333 
 1630000   0.80242427  -0.09443113   0.86418147     1.166989   -5.5492947    6.4134762    2.0311705 
 1640000   0.79531071 -0.093232168   0.86772046    1.1566435   -5.5448689    6.4125894     2.024364 
 1650000   0.79956375 -0.089026985   0.86267612    1.1628289   -5.5519638      6.41464     2.025505 
 1660000   0.79709791  -0.07437941   0.86444961    1.1592427   -5.5525963    6.4170459    2.0236923 
 1670000   0.80181228 -0.067376566   0.86340554     1.166099     -5.54857    6.4119756    2.0295045 
 1680000   0.79834112  -0.03758801   0.86431096    1.1610508   -5.5532294    6.4175403    2.0253617 
 1690000   0.79994629  -0.13574459   0.86161673    1.1633852   -5.5520724    6.4136891     2.025002 
 1700000   0.79423656 -0.085544235   0.86689157    1.1550814   -5.5445138    6.4114053     2.021973 
 1710000   0.79471169 -0.082689043   0.86154979    1.1557724   -5.5535398    6.4150896    2.0173222 
 1720000   0.79766157  -0.12427311   0.85933118    1.1600625   -5.5563429     6.415674    2.0193937 
 1730000   0.80043063 -0.042319167   0.86623918    1.1640896   -5.5468362    6.4130754    2.0303288 
 1740000   0.79664054 -0.098231464   0.85917204    1.1585776   -5.5569224    6.4160944    2.0177496 
 1750000   0.79992118 -0.064041669   0.86181931    1.1633487   -5.5554136    6.4172329     2.025168 
 1760000   0.80627078  -0.10800768    0.8603929    1.1725831   -5.5543536    6.4147465     2.032976 
 1770000   0.80109204 -0.090799969   0.85374922    1.1650515   -5.5572101    6.4109593    2.0188007 
 1780000    0.7956132 -0.081911006   0.86248137    1.1570835   -5.5513947    6.4138761    2.0195648 
 1790000   0.79938796 -0.056803889   0.87050675    1.1625732   -5.5423939    6.4129006      2.03308 
 1800000   0.80460664 -0.083811633   0.86225425    1.1701629   -5.5532485    6.4155028    2.0324171 
 1810000   0.80126369  -0.10625316   0.85732485    1.1653011   -5.5534929    6.4108177     2.022626 
 1820000   0.79627689 -0.075619368    0.8639218    1.1580487   -5.5500614    6.4139832    2.0219705 
 1830000   0.79675961  -0.10408978   0.85125747    1.1587507   -5.5626528    6.4139103    2.0100082 
 1840000   0.79676982 -0.050480655   0.85967784    1.1587656   -5.5514969    6.4111747    2.0184434 
 1850000   0.80085255  -0.07742882   0.86932471    1.1647032   -5.5460487    6.4153734    2.0340279 
 1860000   0.80073784  -0.12925559    0.8674794    1.1645364   -5.5432021    6.4106815    2.0320158 
 1870000   0.80213627 -0.085760039    0.8633436    1.1665702   -5.5530792    6.4164228    2.0299138 
 1880000   0.80037451   -0.0618931   0.86968923     1.164008   -5.5441745    6.4138637    2.0336972 
 1890000   0.80408227 -0.045323551   0.86361461    1.1694003    -5.550508    6.4141226    2.0330149 
 1900000   0.80495775  -0.12285929   0.85841736    1.1706735   -5.5536994    6.4121168    2.0290909 
 1910000   0.80302103  -0.11520874   0.85934024    1.1678569   -5.5532683    6.4126085    2.0271971 
 1920000   0.79997304 -0.053017841   0.86660144    1.1634241   -5.5457219    6.4123233    2.0300256 
 1930000   0.79966386  -0.12289966    0.8547826    1.1629745   -5.5587934    6.4135761    2.0177571 
 1940000   0.79102031    -0.180845    0.8582014    1.1504039   -5.5580836     6.416285    2.0086053 
 1950000   0.79454479 -0.076664464   0.86586567    1.1555297   -5.5491388    6.4150045    2.0213953 
 1960000    0.8025877 -0.097503056   0.86472961    1.1672267   -5.5512554     6.415985    2.0319563 
 1970000    0.7949036 -0.036500186   0.86619582    1.1560515   -5.5498655    6.4160613    2.0222473 
 1980000   0.80456509  -0.11061497   0.86187529    1.1701025   -5.5532324    6.4151077    2.0319778 
 1990000   0.80089923 -0.070010198   0.86362159    1.1647711   -5.5503481    6.4139696    2.0283927 
 2000000   0.79978332   -0.2052888   0.85514269    1.1631482   -5.5581516    6.4132943    2.0182909 
 2010000    0.8075432  -0.14294568   0.85661801    1.1744336   -5.5585175    6.4151356    2.0310516 
 2020000   0.79819553  -0.17091949   0.86454309     1.160839   -5.5515953    6.4161384    2.0253821 
 2030000   0.80003611 -0.040176843   0.86710675    1.1635158   -5.5470999    6.4142067    2.0306226 
 2040000   0.80307503 -0.078459813   0.85548054    1.1679354   -5.5581845    6.4136651     2.023416 
 2050000   0.79808718 -0.033171476    0.8640492    1.1606815   -5.5510049    6.4150541    2.0247307 
 2060000    0.7987561 -0.065295168   0.85680698    1.1616543   -5.5555331    6.4123401    2.0184613 
 2070000   0.80399733 -0.016339965   0.86379184    1.1692768   -5.5551562    6.4189481    2.0330686 
 2080000   0.80322025 -0.059342729   0.86045509    1.1681466   -5.5540949      6.41455    2.0286017 
 2090000   0.80207176  -0.08675402   0.86702619    1.1664764   -5.5460318     6.413058    2.0335025 
 2100000   0.79712431 -0.039133893   0.87234964    1.1592811   -5.5420385    6.4143881    2.0316308 
 2110000   0.79805356 -0.062439387   0.86197935    1.1606326   -5.5532813    6.4152607    2.0226119 
 2120000   0.80074068  -0.13586617    0.8596895    1.1645405   -5.5561309    6.4158204      2.02423 
 2130000   0.79791517  -0.10738359   0.86187673    1.1604313   -5.5496663     6.411543     2.022308 
 2140000   0.79536105  -0.12205968   0.86537673    1.1567168   -5.5512337    6.4166104    2.0220935 
 2150000   0.80100908 -0.076746638   0.86051738    1.1649309   -5.5564942    6.4170116    2.0254482 
 2160000   0.80121659  -0.11753789   0.85844043    1.1652327   -5.5550874    6.4135278    2.0236731 
 2170000    0.7966848 -0.078814499   0.85984348    1.1586419    -5.552924    6.4127675    2.0184854 
 2180000   0.80119507  -0.14197854   0.85953513    1.1652014   -5.5533428    6.4128779    2.0247365 
 2190000   0.79926309 -0.096655079   0.86640312    1.1623916   -5.5497329     6.416136    2.0287947 
 2200000   0.79011417 -0.098383247   0.85727518    1.1490861   -5.5604133    6.4176885    2.0063613 
 2210000   0.80272165 -0.042088039   0.86209353    1.1674215    -5.551776    6.4138695     2.029515 
 2220000   0.80214808  -0.10593032   0.85389485    1.1665873   -5.5566835    6.4105784    2.0204822 
 2230000   0.79917264 -0.066750365   0.86956786    1.1622601   -5.5459755    6.4155433    2.0318279 
 2240000   0.79250594  -0.11941783   0.86036488    1.1525645   -5.5557009    6.4160658    2.0129294 
 2250000   0.79713035  -0.12825465   0.86013889    1.1592899   -5.5543723    6.4145111    2.0194288 
 2260000    0.8072025  -0.04901594    0.8630606    1.1739381   -5.5501715    6.4132321    2.0369987 
 2270000   0.80107908  -0.15621905   0.85625775    1.1650327    -5.558547    6.4148048    2.0212904 
 2280000   0.79576887 -0.074904862   0.86862244    1.1573099   -5.5467894    6.4154118    2.0259323 
 2290000   0.80199672 -0.092143518    0.8567136    1.1663672   -5.5599078    6.4166214    2.0230808 
 2300000   0.79828408   -0.1112882   0.85938921    1.1609678   -5.5556619    6.4150511     2.020357 
 2310000   0.79323462 -0.052356589   0.86682225    1.1536242     -5.55223    6.4190523    2.0204465 
 2320000   0.79934187  -0.12635673   0.86183667    1.1625062   -5.5541139    6.4159506    2.0243429 
 2330000   0.80685258 -0.056182107   0.87082358    1.1734292   -5.5455845    6.4164081    2.0442528 
 2340000   0.80514202 -0.056761192    0.8601951    1.1709415   -5.5539514    6.4141465    2.0311366 
 2350000   0.80016477  -0.06629899   0.86265793     1.163703   -5.5522533    6.4149113    2.0263609 
 2360000   0.80617719  -0.08324776   0.85778865     1.172447   -5.5542929    6.4120815    2.0302356 
 2370000   0.80507372 -0.053146889   0.86483627    1.1708422   -5.5471184    6.4119547    2.0356785 
 2380000   0.79417104 -0.064031457   0.86024551    1.1549861   -5.5525722    6.4128177    2.0152316 
 2390000   0.79513001 -0.056732213   0.85976235    1.1563808    -5.555035    6.4147974    2.0161431 
 2400000   0.80117944  -0.12700622   0.85000755    1.1651786   -5.5625237    6.4125312    2.0151862 
 2410000   0.80511671  -0.11319394   0.86110282    1.1709047   -5.5530437    6.4141465    2.0320075 
 2420000   0.80391668   -0.1201551   0.85692223    1.1691595   -5.5577855    6.4147077    2.0260817 
 2430000   0.79484362  -0.11777758   0.86000793    1.1559642   -5.5509518    6.4109597    2.0159722 
 2440000   0.80482717  -0.10387271   0.86973386    1.1704836   -5.5456002    6.4153341    2.0402175 
 2450000   0.79979706 -0.089220646   0.86092847    1.1631682    -5.553677    6.4146055    2.0240967 
 2460000   0.80218136   -0.1026696   0.86137288    1.1666357   -5.5563612    6.4177341    2.0280086 
 2470000   0.79468383   -0.1005561   0.86030499    1.1557319   -5.5517442    6.4120492    2.0160369 
 2480000   0.79339348  -0.11932209   0.86090131    1.1538553   -5.5558974    6.4167987    2.0147566 
 2490000    0.8014088  -0.12988094   0.86023676    1.1655122   -5.5525812    6.4128179    2.0257489 
 2500000   0.79801158 -0.081075799   0.86280134    1.1605715    -5.549423    6.4122243    2.0233729 
 2510000   0.79421357 -0.074611725   0.86086309     1.155048   -5.5577501    6.4186132     2.015911 
 2520000    0.8002021  -0.13636564   0.85982744    1.1637572   -5.5529089    6.4127364    2.0235847 
 2530000     0.797599  -0.11277679     0.855836    1.1599715   -5.5589609    6.4147969    2.0158075 
 2540000   0.80028711  -0.10522092   0.86384114    1.1638809   -5.5513831    6.4152242     2.027722 
 2550000   0.80078739 -0.043929553   0.85401356    1.1646085   -5.5591273    6.4131408     2.018622 
 2560000    0.7965942 -0.092332421    0.8607203    1.1585102   -5.5532332    6.4139535    2.0192305 
 2570000   0.80746309  -0.15004852   0.85420401    1.1743171   -5.5612033    6.4154073    2.0285211 
 2580000   0.79681824 -0.091931126   0.85521317     1.158836   -5.5588846    6.4140978    2.0140492 
 2590000   0.79626958  -0.10263815   0.85351315    1.1580381   -5.5581795    6.4116926    2.0115512 
 2600000    0.7891539  -0.11216903   0.86383483    1.1476895   -5.5544558    6.4182906    2.0115244 
 2610000   0.80207102 -0.076549341   0.86311907    1.1664753   -5.5545894    6.4177085    2.0295943 
 2620000   0.80408515  -0.11960769   0.85553043    1.1694045    -5.560567    6.4160975    2.0249349 
 2630000   0.79883897  -0.15670466   0.85310702    1.1617748   -5.5588607    6.4119677    2.0148818 
 2640000   0.79897949 -0.086011194   0.85291731    1.1619792   -5.5620452    6.4149625    2.0148965 
 2650000   0.80310006 -0.071930789   0.86204295    1.1679718   -5.5512817    6.4133246    2.0300148 
 2660000   0.80163536 -0.047566933   0.85969426    1.1658417   -5.5555021    6.4151963    2.0255359 
 2670000   0.80045988  -0.11976548   0.85342757    1.1641321   -5.5609417    6.4143693    2.0175597 
 2680000   0.80388072 -0.090999323   0.85879311    1.1691072   -5.5544525    6.4132456    2.0279003 
 2690000   0.79663745  -0.12045809   0.85612682    1.1585731   -5.5573154    6.4134422    2.0146999 
 2700000    0.7982752  -0.12741514    0.8494854    1.1609549   -5.5631905    6.4126759    2.0104403 
 2710000   0.80122361  -0.10045203   0.85633218    1.1652429   -5.5578167    6.4141489     2.021575 
 2720000   0.80388037  -0.14410378   0.85358418    1.1691067    -5.563301    6.4168852    2.0226908 
 2730000   0.79883935  -0.05049818   0.85858855    1.1617754   -5.5572692    6.4158578    2.0203639 
 2740000   0.80992672  -0.13816868   0.85720117       1.1779   -5.5562827    6.4134839    2.0351012 
 2750000   0.79735588 -0.052323614      0.85754    1.1596179   -5.5562532    6.4137932    2.0171579 
 2760000     0.799694  -0.15280968   0.84982213    1.1630183   -5.5667144    6.4165365    2.0128404 
 2770000   0.79929992 -0.061846018   0.85348133    1.1624452   -5.5576027     6.411084    2.0159265 
 2780000   0.80097237 -0.077570803    0.8559349    1.1648775   -5.5549526    6.4108875    2.0208124 
 2790000   0.80019384 -0.056403225   0.85911454    1.1637452   -5.5591377    6.4182523    2.0228598 
 2800000   0.80411615 -0.071588082   0.86123462    1.1694496   -5.5513684     6.412603    2.0306842 
 2810000   0.79989162 -0.097579105   0.85886791    1.1633057   -5.5578965    6.4167644    2.0221736 
 2820000   0.79163025  -0.06012158   0.85237763     1.151291   -5.5595285    6.4119061    2.0036686 
 2830000   0.79710447 -0.054014898   0.85848925    1.1592523   -5.5613478    6.4198371    2.0177415 
 2840000   0.80568327 -0.060672818   0.86136395    1.1717287   -5.5566166    6.4179805    2.0330926 
 2850000   0.79549171 -0.079812409   0.85370742    1.1569068   -5.5597261    6.4134335    2.0106142 
 2860000    0.7994015 -0.081671879   0.84872919    1.1625929   -5.5648258     6.413555    2.0113221 
 2870000   0.79890076  -0.14227574   0.85864637    1.1618647   -5.5552107     6.413857     2.020511 
 2880000   0.79942331  -0.10398545   0.85105185    1.1626246   -5.5622159    6.4132677    2.0136765 
 2890000    0.7976217 -0.080972414    0.8495368    1.1600045   -5.5645015    6.4140383    2.0095413 
 2900000   0.79916615 -0.091042031   0.85310629    1.1622506   -5.5601435    6.4132498    2.0153569 
 2910000   0.79734388  -0.11484548   0.86359764    1.1596005   -5.5534803    6.4170779    2.0231981 
 2920000   0.80105023  -0.14229984   0.85214109    1.1649907   -5.5613176    6.4134587    2.0171318 
 2930000   0.80224676   -0.1164624   0.85005004    1.1667309   -5.5639289    6.4139789    2.0167809 
 2940000   0.80480071  -0.14332205   0.84364868    1.1704451   -5.5698346    6.4134833    2.0140938 
 2950000   0.79589016  -0.15716372   0.85117183    1.1574863   -5.5644142     6.415586    2.0086581 
 2960000   0.79712749 -0.021401083   0.85526435    1.1592858   -5.5573932    6.4126575    2.0145501 
 2970000   0.80649104  -0.13494281   0.84817674    1.1729034   -5.5634495    6.4116262    2.0210802 
 2980000   0.80189329 -0.077600914   0.85350634    1.1662168   -5.5602849    6.4137912    2.0197231 
 2990000   0.79957118 -0.065226237   0.84879403    1.1628397   -5.5629053    6.4116993    2.0116337 
 3000000   0.79403765 -0.083699695   0.85537647    1.1547921     -5.56068    6.4160565    2.0101686 
 3010000   0.79673482 -0.083213751   0.85876121    1.1587147   -5.5584334    6.4171946    2.0174759 
 3020000   0.79568202  -0.10333245   0.85019304    1.1571836   -5.5622087    6.4124017    2.0073766 
 3030000   0.79999975  -0.10726537   0.84284368     1.163463    -5.572489    6.4153327    2.0063066 
 3040000   0.79371358  -0.12995375   0.84744089    1.1543208   -5.5657556    6.4131965    2.0017617 
 3050000   0.80255738 -0.040979242   0.85284171    1.1671826   -5.5589872     6.411829    2.0200243 
 3060000   0.79396413  -0.17896028   0.85941834    1.1546852   -5.5601906    6.4196089    2.0141035 
 3070000   0.79885737 -0.070102865   0.85256314    1.1618016     -5.56142    6.4139831    2.0143647 
 3080000   0.79608391  -0.17525922   0.85138257    1.1577681   -5.5657751    6.4171577    2.0091506 
 3090000    0.8128474  -0.03349177   0.85092929    1.1821477   -5.5633282    6.4142575     2.033077 
 3100000   0.79678974 -0.027044863   0.85193343    1.1587945   -5.5641496     6.416083     2.010728 
 3110000    0.8029725 -0.089180822   0.85319487    1.1677863   -5.5606839    6.4138788    2.0209812 
 3120000   0.79676074    -0.146442    0.8562231    1.1587524   -5.5582089     6.414432    2.0149755 
 3130000   0.80381849 -0.098491103   0.85138215    1.1690167   -5.5668934    6.4182755    2.0203988 
 3140000   0.80202976   -0.1356576   0.85199621    1.1664153   -5.5624482    6.4144444    2.0184115 
 3150000   0.80072831  -0.14175271   0.84557545    1.1645225   -5.5703045    6.4158799     2.010098 
 3160000   0.79741041 -0.090016518   0.85258398    1.1596972   -5.5612091    6.4137931    2.0122812 
 3170000   0.80012655  -0.10536309   0.84533733    1.1636474   -5.5692818    6.4146192    2.0089847 
 3180000   0.79535606  -0.10144469   0.85046077    1.1567095   -5.5617751    6.4122358    2.0071703 
 3190000   0.80096625 -0.092978675   0.84897288    1.1648686    -5.566115    6.4150878    2.0138415 
 3200000   0.80028448 -0.076289717      0.85486     1.163877    -5.560984     6.415844     2.018737 
 3210000   0.79084359    -0.147176   0.84133916    1.1501469   -5.5708506    6.4121897    1.9914861 
 3220000   0.80041188 -0.083839423   0.85322521    1.1640623   -5.5583203    6.4115455    2.0172875 
 3230000   0.79519764  -0.15236497   0.85458454    1.1564791   -5.5589348    6.4135194    2.0110637 
 3240000   0.79884438 -0.0089547261   0.85697601    1.1617827   -5.5595471    6.4165231    2.0187587 
 3250000   0.80234166 -0.063257164   0.84908133    1.1668689   -5.5614298    6.4105111    2.0159502 
 3260000   0.80307747  -0.14525031   0.84569387     1.167939   -5.5641343    6.4098282    2.0136328 
 3270000   0.79805768 -0.058190179   0.84972363    1.1606386   -5.5648059    6.4145295    2.0103622 
 3280000    0.8015191  -0.01495258   0.85293184    1.1656726   -5.5582335    6.4111654    2.0186044 
 3290000   0.80772151  -0.11911035   0.84740537    1.1746929    -5.565211    6.4126163    2.0220983 
 3300000   0.79958794 -0.099203327   0.85390416    1.1628641   -5.5618855    6.4157897    2.0167682 
 3310000    0.8011702 -0.074784357   0.84449423    1.1651652   -5.5707696    6.4152639    2.0096594 
 3320000   0.80031018   -0.1042066   0.85102495    1.1639144   -5.5640186    6.4150436    2.0149394 
 3330000   0.80074803 -0.027193106   0.84712319    1.1645512    -5.565193    6.4123162    2.0116744 
 3340000   0.80385074 -0.053191401   0.85302267    1.1690636   -5.5588708    6.4118935    2.0220862 
 3350000   0.79821287  -0.12455851   0.84569099    1.1608642    -5.569933     6.415624    2.0065552 
 3360000   0.79601281 -0.044651623   0.85306765    1.1576646   -5.5634839    6.4165515    2.0107323 
 3370000   0.79695796 -0.071261277   0.84608676    1.1590392   -5.5669648    6.4130516     2.005126 
 3380000   0.80149357  -0.03882833   0.86093403    1.1656355   -5.5593723    6.4203063    2.0265695 
 3390000   0.79764919  -0.12821669   0.84635588    1.1600445   -5.5660937    6.4124495    2.0064004 
 3400000    0.7951433  -0.10928306   0.85398201    1.1564001   -5.5621199    6.4161019    2.0103821 
 3410000   0.79157136   -0.1367933    0.8439641    1.1512053   -5.5710983    6.4150624    1.9951694 
 3420000     0.803356 -0.077906712   0.85374033    1.1683441   -5.5629871    6.4167274    2.0220844 
 3430000   0.80516258  -0.10312701   0.84750919    1.1709714   -5.5664132    6.4139224    2.0184806 
 3440000   0.80006431 -0.047148214   0.84808698    1.1635569    -5.569698     6.417785    2.0116438 
 3450000   0.79708831 -0.043802845   0.85074124    1.1592288   -5.5624991    6.4132404      2.00997 
 3460000   0.80710699  -0.10475018   0.84664546    1.1737992   -5.5700598    6.4167052    2.0204447 
 3470000   0.80230209 -0.071583808    0.8466136    1.1668113   -5.5681947    6.4148083    2.0134249 
 3480000   0.80222716  -0.11246457   0.85132053    1.1667023   -5.5627845     6.414105    2.0180229 
 3490000   0.79473744  -0.13929615   0.84688788    1.1558098   -5.5655741     6.412462    2.0026977 
 3500000   0.79577114  -0.13502547   0.84568146    1.1573132   -5.5666704    6.4123519    2.0029946 
 3510000   0.79974638 -0.027037666   0.85125364    1.1630945   -5.5630907    6.4143444    2.0143481 
 3520000   0.79822266  -0.10068248   0.85111952    1.1608785   -5.5642133    6.4153328     2.011998 
 3530000   0.79649998 -0.081063891   0.84826836    1.1583731   -5.5654059    6.4136743    2.0066415 
 3540000   0.80548795 -0.067711515    0.8570239    1.1714446   -5.5599771     6.417001    2.0284685 
 3550000   0.79652523  -0.11181139   0.84372743    1.1584099   -5.5706556    6.4143831    2.0021373 
 3560000   0.80382453  -0.09235352   0.84684109    1.1690255   -5.5665861    6.4134272    2.0158665 
 3570000    0.7992632 -0.064259355    0.8404918    1.1623918   -5.5710421    6.4115339    2.0028836 
 3580000    0.7985682  -0.12494955    0.8502392     1.161381   -5.5652284    6.4154676    2.0116202 
 3590000   0.79812616 -0.050051247   0.85420949    1.1607381   -5.5593913    6.4136008    2.0149476 
 3600000   0.80166839  -0.10603423   0.85256389    1.1658897   -5.5613197    6.4138836    2.0184536 
 3610000   0.80219041  -0.16805654   0.85148414    1.1666489   -5.5619788    6.4134629     2.018133 
 3620000    0.7965481 -0.059546354   0.85682872    1.1584431   -5.5607054    6.4175341    2.0152719 
 3630000   0.79688267 -0.047412063   0.85146628    1.1589297   -5.5630113    6.4144776     2.010396 
 3640000    0.7983458  -0.11523996   0.84940537    1.1610576   -5.5637806     6.413186    2.0104629 
 3650000   0.79810458  -0.12342752   0.84878503    1.1607068   -5.5693497    6.4181348    2.0094918 
 3660000   0.79682582 -0.086396102   0.84701889     1.158847   -5.5684439    6.4154628    2.0058659 
 3670000   0.79807005 -0.038577481   0.85537139    1.1606565   -5.5590924    6.4144638    2.0160279 
 3680000   0.79826511 -0.083507952    0.8501569    1.1609402   -5.5661819    6.4163388    2.0110971 
 3690000   0.80145974   -0.1121955   0.84236555    1.1655863   -5.5700571    6.4124227    2.0079518 
 3700000   0.81024614 -0.082698736   0.84284618    1.1783646   -5.5672508     6.410097    2.0212108 
 3710000   0.79779241  -0.09549359   0.85150702    1.1602528   -5.5633466    6.4148536    2.0117598 
 3720000   0.80348568 -0.088130921   0.84766209    1.1685327   -5.5655325    6.4131946    2.0161947 
 3730000   0.80223151 -0.089740703    0.8542727    1.1667087   -5.5608855    6.4151582    2.0209814 
 3740000   0.79828413  -0.10964148   0.84299921    1.1609679   -5.5693551    6.4123543    2.0039671 
 3750000   0.79797947  -0.11023821   0.84748142    1.1605248   -5.5645346     6.412016    2.0080062 
 3760000   0.80238589  -0.09326469   0.84248838    1.1669332   -5.5720047    6.4144931    2.0094216 
 3770000   0.80115449 -0.097693572   0.85364458    1.1651423   -5.5606305    6.4142751    2.0187869 
 3780000   0.79799785  -0.12537231    0.8468852    1.1605515   -5.5726701    6.4195553    2.0074367 
 3790000   0.80271326 -0.082790994   0.85118395    1.1674093   -5.5627401    6.4139241    2.0185933 
 3800000   0.79649136  -0.11596858   0.84946214    1.1583606   -5.5661055    6.4155677    2.0078227 
 3810000   0.80599987  -0.14410103   0.84296045    1.1721891    -5.570386    6.4133465    2.0151496 
 3820000   0.80160912  -0.11787315   0.83581797    1.1658035   -5.5775122    6.4133301    2.0016215 
 3830000   0.79912531  -0.05364157   0.84810669    1.1621912   -5.5645017    6.4126084    2.0102979 
 3840000   0.79711305  -0.13004866   0.84259533    1.1592648   -5.5712533    6.4138486    2.0018601 
 3850000    0.7997793 -0.0099087181   0.84953849    1.1631424   -5.5647678    6.4143063    2.0126808 
 3860000   0.79913873 -0.082354214   0.83989162    1.1622108    -5.572962    6.4128536    2.0021024 
 3870000   0.80496443 -0.055389246   0.85041843    1.1706832   -5.5633923    6.4138107    2.0211017 
 3880000   0.80307761   -0.1127737   0.85611688    1.1679392   -5.5607184    6.4168353    2.0240561 
 3890000    0.7996089  -0.11798736    0.8413441    1.1628945   -5.5747054    6.4160495    2.0042386 
 3900000   0.79703929  -0.12801761   0.83891524    1.1591575   -5.5727325    6.4116477    1.9980727 
 3910000   0.80355658 -0.025193695   0.85015138    1.1686358   -5.5641088    6.4142601    2.0187872 
 3920000   0.79764778 -0.058327464   0.84638931    1.1600424   -5.5669276    6.4133169    2.0064317 
 3930000   0.80297766 -0.097873138   0.84650769    1.1677938   -5.5688321    6.4153398    2.0143015 
 3940000   0.79107422 -0.095166181   0.85039711    1.1504823   -5.5685092    6.4189064    2.0008794 
 3950000   0.80389516 -0.078797386   0.84465105    1.1691282    -5.570277     6.414928    2.0137792 
 3960000   0.80394291  -0.07657604   0.85111655    1.1691976   -5.5645711    6.4156877    2.0203142 
 3970000   0.80128891  -0.11641984   0.84631611    1.1653378   -5.5659131    6.4122292    2.0116539 
 3980000   0.80279996  -0.12920775    0.8386264    1.1675354   -5.5768094    6.4154358    2.0061618 
 3990000   0.80275036   -0.1289827   0.84088361    1.1674633   -5.5723576    6.4132413    2.0083469 
 4000000   0.79782197  -0.06953396   0.85092495    1.1602958   -5.5655071     6.416432    2.0112207 
 4010000   0.80208515  -0.14537659   0.84940657    1.1664958    -5.565912    6.4153186    2.0159024 
 4020000   0.79709897  -0.10387704     0.837714    1.1592443   -5.5751202    6.4128342    1.9969583 
 4030000   0.79996971  -0.10637672   0.84284239    1.1634193   -5.5716726     6.414515    2.0062617 
 4040000   0.79696725   -0.1431019    0.8307274    1.1590527     -5.58361    6.4143374    1.9897801 
 4050000   0.80520242  -0.04404499   0.84027251    1.1710294   -5.5702506    6.4105231    2.0113019 
 4060000   0.79877573  -0.11138515   0.84172604    1.1616828   -5.5727391    6.4144651    2.0034089 
 4070000   0.79868057 -0.059278509   0.84453287    1.1615444   -5.5679146    6.4124475    2.0060773 
 4080000   0.78888071 -0.094942037   0.84208537    1.1472922   -5.5702853    6.4123707    1.9893776 
 4090000   0.79950215  -0.13089491   0.84275822    1.1627393   -5.5694411    6.4121994    2.0054975 
 4100000   0.79730814  -0.11730078   0.84485755    1.1595485    -5.570796    6.4156535     2.004406 
 4110000   0.79962981 -0.019701404   0.83731699     1.162925   -5.5730145    6.4103315    2.0002419 
 4120000   0.79591772 -0.072610528   0.84271792    1.1575263   -5.5718959    6.4146138    2.0002443 
 4130000   0.79844796  -0.17750249    0.8357427    1.1612062   -5.5790607    6.4148034    1.9969489 
 4140000   0.79357692 -0.060670689   0.84671636    1.1541221   -5.5641361    6.4108524    2.0008384 
 4150000   0.79996521 -0.060748547   0.84449884    1.1634127   -5.5686836    6.4131824    2.0079116 
 4160000   0.80033723 -0.069255761   0.85431838    1.1639538   -5.5626389    6.4169572    2.0182721 
 4170000   0.79836317 -0.090676423   0.84939072    1.1610828    -5.564759    6.4141497    2.0104736 
 4180000   0.79653708  -0.06593413   0.84497996    1.1584271   -5.5709095    6.4158895    2.0034071 
 4190000   0.79365344 -0.088394008   0.85436538    1.1542333   -5.5610631    6.4154285    2.0085987 
 4200000   0.80181767 -0.071250113   0.84816288    1.1661068    -5.561563    6.4097259    2.0142697 
 4210000    0.8023018  -0.16755891   0.83778209    1.1668109    -5.578596    6.4163781     2.004593 
 4220000   0.80646467 -0.085297434   0.85180545    1.1728651   -5.5616265     6.413432    2.0246705 
 4230000   0.80462871 -0.065662323   0.84576626     1.170195   -5.5681844    6.4139506    2.0159613 
 4240000    0.7958013 -0.091132004   0.85026704     1.157357   -5.5652183    6.4154853    2.0076241 
 4250000   0.79540363  -0.14673369   0.85115193    1.1567787   -5.5640029    6.4151548    2.0079306 
 4260000   0.80055498  -0.13444226   0.83667957    1.1642704   -5.5759052    6.4125847      2.00095 
 4270000   0.79426334 -0.092441808   0.84254764    1.1551203   -5.5713901    6.4139377     1.997668 
 4280000   0.79407009 -0.021386693   0.84442417    1.1548393   -5.5683057    6.4127299    1.9992635 
 4290000   0.80238986 -0.024973413   0.84994992     1.166939   -5.5643191     6.414269    2.0168889 
 4300000   0.80839141 -0.072941894   0.84930091    1.1756672   -5.5643585    6.4136594    2.0249681 
 4310000   0.80256299  -0.12816287   0.84791065    1.1671908   -5.5694134     6.417324    2.0151014 
 4320000   0.79134878 -0.056791623   0.84481922    1.1508816   -5.5684191    6.4132384    1.9957008 
 4330000   0.80230444 -0.059613914   0.84938744    1.1668147   -5.5665451    6.4159325    2.0162022 
 4340000   0.79730531 -0.072974517   0.84392969    1.1595444   -5.5713804    6.4153101     2.003474 
 4350000    0.7949238 -0.047217326    0.8539864    1.1560809   -5.5632111    6.4171975    2.0100673 
 4360000   0.79625272 -0.097022911   0.83767646    1.1580135   -5.5783346    6.4160111      1.99569 
 4370000   0.79597824  -0.12670677   0.83923595    1.1576144    -5.571742     6.410978    1.9968503 
 4380000   0.79696949  -0.10542689   0.84729242     1.159056   -5.5674226     6.414715    2.0063484 
 4390000   0.80161826    -0.129527   0.83615025    1.1658168   -5.5776907     6.413841    2.0019671 
 4400000   0.80045967  -0.14604345   0.83836838    1.1641318   -5.5741572    6.4125256    2.0025002 
 4410000   0.80455156 -0.072135881   0.85135833    1.1700828   -5.5629551    6.4143134    2.0214411 
 4420000   0.79484304  -0.11259312   0.83535153    1.1559634   -5.5779454    6.4132969    1.9913149 
 4430000   0.79856347   -0.1236997   0.84648321    1.1613741   -5.5672338     6.413717    2.0078574 
 4440000   0.79756784 -0.068303215   0.83600307    1.1599262   -5.5757848    6.4117879    1.9959292 
 4450000   0.79720204  -0.13539237   0.84063695    1.1593942   -5.5743215    6.4149584    2.0000311 
 4460000   0.80144232  -0.15080848   0.84453419    1.1655609   -5.5678162    6.4123504    2.0100951 
 4470000   0.80290605  -0.14628729   0.84172651    1.1676897   -5.5722097    6.4139362    2.0094162 
 4480000     0.796442  -0.12366176   0.84053892    1.1582888   -5.5703045    6.4108434    1.9988278 
 4490000   0.79595304 -0.086999314   0.83701507    1.1575777   -5.5727091    6.4097242    1.9945928 
 4500000    0.7990511 -0.077521605   0.85237598    1.1620833    -5.564174    6.4165499    2.0144593 
 4510000   0.80033448 -0.051027161   0.84725351    1.1639498    -5.566004    6.4132575    2.0112033 
 4520000   0.80015488  -0.06885241   0.84586003    1.1636886   -5.5688653    6.4147253    2.0095486 
 4530000   0.79789704  -0.13448926    0.8420825    1.1604049   -5.5700503    6.4121328    2.0024874 
 4540000   0.80435882 -0.097508867     0.841627    1.1698025   -5.5737405    6.4153675    2.0114295 
 4550000   0.79572421 -0.079962801   0.84434187    1.1572449   -5.5708064    6.4151483    2.0015868 
 4560000   0.79734047 -0.051085477   0.84776795    1.1595955   -5.5661053    6.4138732    2.0073634 
 4570000   0.80011503 -0.074975987   0.84977781    1.1636306   -5.5643331    6.4141109    2.0134084 
 4580000   0.80259106 -0.092349927   0.84857688    1.1672316   -5.5679921     6.416569    2.0158085 
 4590000   0.79042811  0.037315866   0.85232406    1.1495426   -5.5671326    6.4194567    2.0018667 
 4600000   0.80554402  -0.14828381   0.83572522    1.1715262   -5.5787462    6.4144714    2.0072514 
 4610000   0.80490911  -0.12013845    0.8506411    1.1706028    -5.560708     6.411349    2.0212439 
 4620000   0.79859017 -0.054549506   0.84321582     1.161413    -5.572871    6.4160868    2.0046288 
 4630000   0.81208609  -0.10917199   0.83572529    1.1810405   -5.5746431    6.4103684    2.0167658 
 4640000   0.80532173  -0.13355615    0.8398858    1.1712029    -5.575452    6.4153378    2.0110887 
 4650000   0.80910885 -0.065850303   0.84531866    1.1767106   -5.5680679    6.4133865    2.0220292 
 4660000   0.79899731  -0.11126126   0.84217256    1.1620051   -5.5733075      6.41548    2.0041777 
 4670000   0.79726489  -0.10690158   0.83675925    1.1594856   -5.5758267    6.4125859    1.9962448 
 4680000   0.79693773  -0.12430576     0.842873    1.1590098   -5.5708114    6.4136844    2.0018828 
 4690000   0.80236417   -0.1093912   0.84032844    1.1669016   -5.5737106    6.4140391      2.00723 
 4700000   0.80231529 -0.065415204   0.84929303    1.1668305    -5.563638     6.412931    2.0161235 
 4710000   0.79433854 -0.097087684   0.84137559    1.1552297   -5.5736046    6.4149802    1.9966053 
 4720000   0.79563462  -0.12805449   0.83553995    1.1571146   -5.5773854    6.4129254    1.9926546 
 4730000   0.79961489 -0.045693123   0.84147824    1.1629032   -5.5733433    6.4148215    2.0043815 
 4740000   0.80370297  -0.14900744   0.84353813    1.1688487   -5.5737615    6.4172996    2.0123868 
 4750000     0.808956  -0.10257417    0.8396862    1.1764883   -5.5765382    6.4162244    2.0161745 
 4760000   0.79704515  -0.09282092   0.84200149     1.159166   -5.5699553    6.4119568    2.0011675 
 4770000   0.79654552 -0.092149469   0.85174893    1.1584394   -5.5637806    6.4155295    2.0101883 
 4780000   0.80218235 -0.089573444   0.85108165    1.1666372   -5.5632641    6.4143458    2.0177188 
 4790000   0.79681176 -0.064963689   0.84585583    1.1588266   -5.5696581    6.4155139    2.0046824 
 4800000   0.80551636 -0.053934481   0.84564785    1.1714859   -5.5717621      6.41741    2.0171338 
 4810000   0.79342054 -0.068927589   0.84037813    1.1538946   -5.5698125    6.4101906    1.9942728 
 4820000   0.79771344 -0.076138316   0.84808208    1.1601379   -5.5663908    6.4144729      2.00822 
 4830000   0.79462531  -0.17034019   0.83694519    1.1556468   -5.5782083    6.4151535    1.9925919 
 4840000   0.80067705  -0.03990033   0.84645876     1.164448    -5.568913    6.4153717    2.0109067 
 4850000   0.80238501 -0.083668566   0.84069531    1.1669319   -5.5746615    6.4153568    2.0076272 
 4860000   0.79925851 -0.077881644   0.84400596     1.162385   -5.5726733    6.4166793    2.0063909 
 4870000    0.7982888 -0.042258479   0.85312069    1.1609747   -5.5626806    6.4158013    2.0140954 
 4880000   0.79487435  -0.18377639   0.84055639     1.156009   -5.5738376     6.414394    1.9965653 
 4890000   0.79939387  -0.12390071   0.84678838    1.1625818   -5.5696895    6.4164779    2.0093702 
 4900000   0.80164246 -0.083634234   0.84770766     1.165852   -5.5639505    6.4116581    2.0135597 
 4910000   0.80014372 -0.0065132602   0.85039596    1.1636723   -5.5643118    6.4147078    2.0140683 
 4920000   0.79861972  -0.10812259   0.83997604    1.1614559   -5.5739284    6.4139045     2.001432 
 4930000   0.79822902  -0.13116941   0.84388033    1.1608877   -5.5720971    6.4159774    2.0047681 
 4940000   0.79287993 -0.087563467   0.84589275    1.1531084   -5.5683247    6.4142174    1.9990011 
 4950000   0.80393233    -0.166253   0.83998928    1.1691822   -5.5761061    6.4160954    2.0091715 
 4960000   0.80413075 -0.080470692   0.84052906    1.1694708   -5.5735941    6.4141231    2.0099999 
 4970000   0.80125989  -0.16246783   0.83550221    1.1652956   -5.5747775    6.4102797    2.0007978 
 4980000   0.80585779  -0.11463568   0.83927172    1.1719825   -5.5752169    6.4144887    2.0112542 
 4990000   0.80126802  -0.11317589   0.83948776    1.1653074   -5.5789076    6.4183954    2.0047952 
 5000000   0.80269896 -0.069878945   0.84636926    1.1673885   -5.5701047    6.4164739    2.0137578 
 5010000   0.80084133 -0.057770431   0.84927999    1.1646869   -5.5650154    6.4142954    2.0139669 
 5020000   0.80079562  -0.22627209   0.83949534    1.1646204   -5.5726574    6.4121527    2.0041158 
 5030000   0.79913875  -0.14717654   0.84054468    1.1622108   -5.5724142    6.4129589    2.0027555 
 5040000   0.80154044  -0.11090121   0.83895999    1.1657036   -5.5749588    6.4139188    2.0046636 
 5050000   0.80296904  -0.10522529    0.8441169    1.1677813   -5.5707158    6.4148327    2.0118982 
 5060000    0.7956055  -0.15031834   0.85201771    1.1570723   -5.5616103    6.4136281      2.00909 
 5070000   0.79939255 -0.066346311   0.84307185    1.1625799   -5.5695016    6.4125735    2.0056517 
 5080000   0.79479576  -0.16698945   0.84254124    1.1558946   -5.5703337     6.412875    1.9984359 
 5090000   0.79829672   -0.1070416   0.84363952    1.1609862    -5.572808    6.4164475    2.0046257 
 5100000   0.80033289 -0.089246776   0.85283962    1.1639475   -5.5633494     6.416189    2.0167871 
 5110000   0.80194811 -0.035718836   0.84694047    1.1662965   -5.5664017    6.4133422     2.013237 
 5120000   0.79739838  -0.10181964   0.84590315    1.1596797    -5.568653    6.4145562    2.0055829 
 5130000   0.79655983 -0.0079582323   0.84798623    1.1584602   -5.5649478     6.412934    2.0064464 
 5140000   0.79691386 -0.055142565   0.84374932    1.1589751   -5.5669703    6.4107197    2.0027244 
 5150000   0.79306768  -0.12246877    0.8413202    1.1533814   -5.5700403    6.4113605    1.9947016 
 5160000    0.7996272  -0.13362433   0.83726076    1.1629212   -5.5744221    6.4116828    2.0001819 
 5170000    0.7991121 -0.099609354   0.84619479     1.162172   -5.5678781    6.4140729    2.0083668 
 5180000   0.80181843 -0.064452107   0.84209466    1.1661079   -5.5682065    6.4103011    2.0082026 
 5190000   0.79463162 -0.053638171   0.84729298    1.1556559   -5.5667497    6.4140427    2.0029489 
 5200000     0.808158 -0.061163249   0.84829741    1.1753277   -5.5659692    6.4142666    2.0236252 
 5210000   0.79876531 -0.041107954   0.84338993    1.1616677    -5.568851    6.4122409    2.0050576 
 5220000   0.80146422  -0.16039414   0.83869269    1.1655928   -5.5794063     6.418099    2.0042855 
 5230000   0.79932338 -0.044832922   0.84555092    1.1624793   -5.5668728    6.4124237    2.0080302 
 5240000   0.79428498  -0.11831403   0.83958042    1.1551518   -5.5764284    6.4160089    1.9947322 
 5250000    0.8094062  -0.10778612   0.83774472     1.177143   -5.5750251    6.4127698    2.0148878 
 5260000   0.80464061 -0.061631423   0.84551613    1.1702123   -5.5709171    6.4164332    2.0157284 
 5270000   0.80448216 -0.082990094   0.84578052    1.1699819   -5.5703765    6.4161571    2.0157624 
 5280000   0.79810784  -0.11488275    0.8439417    1.1607115   -5.5721203     6.416062    2.0046532 
 5290000   0.80143659 -0.096210994   0.84698301    1.1655526   -5.5691219    6.4161049    2.0125356 
 5300000   0.80094428  -0.19125486   0.84205227    1.1648366   -5.5706923    6.4127446    2.0068889 
 5310000   0.80011273   -0.1310573   0.84064706    1.1636273   -5.5765167    6.4171638    2.0042743 
 5320000   0.80010398  -0.11097627   0.84825102    1.1636146   -5.5684907    6.4167417    2.0118656 
 5330000   0.80144088 -0.042196426    0.8520104    1.1655588   -5.5618586     6.413869    2.0175692 
 5340000   0.80013639 -0.075551885    0.8458813    1.1636617   -5.5666207     6.412502     2.009543 
 5350000   0.79737956  -0.10115487   0.84463298    1.1596523   -5.5681886    6.4128215    2.0042853 
 5360000   0.79727976 -0.084285236   0.84273773    1.1595072   -5.5714984    6.4142361    2.0022449 
 5370000   0.79914517  -0.10105936   0.84979053    1.1622201   -5.5651882    6.4149788    2.0120107 
 5380000   0.79563253 -0.084824628   0.84516771    1.1571116   -5.5699052    6.4150729    2.0022793 
 5390000   0.79864752 -0.069412867   0.84540785    1.1614964   -5.5666395    6.4120474    2.0069042 
 5400000   0.80053411 -0.073250132   0.84176755    1.1642401   -5.5707269    6.4124944    2.0060077 
 5410000    0.8041833 -0.081713331   0.84402086    1.1695472   -5.5697586    6.4137794    2.0135681 
 5420000   0.80524263  -0.11897957   0.84827568    1.1710878   -5.5657311    6.4140067    2.0193635 
 5430000    0.8007982 -0.028265057   0.84904318    1.1646242   -5.5664521    6.4154953    2.0136674 
 5440000   0.80023409 -0.072518726   0.84852276    1.1638038   -5.5649456    6.4134684    2.0123265 
 5450000   0.79348881  -0.10957192   0.85018836    1.1539939   -5.5659211    6.4161095    2.0041823 
 5460000   0.79730537 -0.030665786   0.85449651    1.1595444   -5.5602784    6.4147749     2.014041 
 5470000   0.80090766  -0.16493341   0.83604529    1.1647834   -5.5765614    6.4126067    2.0008287 
 5480000   0.80930576  -0.14687688    0.8416212     1.176997   -5.5729251    6.4145463    2.0186182 
 5490000   0.80219292 -0.061474308     0.847003    1.1666526   -5.5688156    6.4158185    2.0136556 
 5500000   0.80233371  -0.13432456   0.84662756    1.1668573   -5.5661614     6.412789    2.0134849 
 5510000   0.79953899  -0.15167621   0.83215324    1.1627929   -5.5820871    6.4142404    1.9949461 
 5520000   0.80404485  -0.11370671   0.84132971    1.1693459   -5.5712218    6.4125515    2.0106756 
 5530000    0.8004784 -0.044107278   0.85106553    1.1641591   -5.5631883    6.4142539    2.0152246 
 5540000   0.78870867 -0.087855334   0.84587096     1.147042   -5.5706283    6.4164993     1.992913 
 5550000   0.79695297  -0.13412498   0.83310334    1.1590319   -5.5791741    6.4122774    1.9921353 
 5560000   0.79710982 -0.066899811   0.83991043    1.1592601   -5.5725619    6.4124724    1.9991705 
 5570000   0.80513217 -0.064812929   0.84378913    1.1709272   -5.5690518     6.412841    2.0147163 
 5580000   0.80618207 -0.042665379   0.84121018    1.1724541   -5.5697827    6.4109929    2.0136643 
 5590000   0.79838078  -0.10233398    0.8400908    1.1611085   -5.5724028    6.4124936    2.0011993 
 5600000   0.80275113 -0.083204706   0.83675563    1.1674644   -5.5768064     6.413562      2.00422 
 5610000   0.80305482  -0.10275798   0.84108561     1.167906   -5.5736522    6.4147379    2.0089916 
 5620000   0.80346652 -0.085584821   0.84038089    1.1685048   -5.5722993    6.4126802    2.0088857 
 5630000   0.80135413   -0.1514702   0.83955322    1.1654327   -5.5720577    6.4116109    2.0049859 
 5640000   0.79566183 -0.032003394      0.84768    1.1571542   -5.5659419    6.4136219    2.0048342 
 5650000   0.80768124  -0.12807658   0.83401258    1.1746344   -5.5802203    6.4142329     2.008647 
 5660000   0.80155044 -0.096153173   0.84791196    1.1657182   -5.5673453    6.4152572    2.0136301 
 5670000   0.79428103 -0.097921932   0.84269815    1.1551461   -5.5714184    6.4141166    1.9978442 
 5680000   0.80226884 -0.076613201   0.83631095     1.166763   -5.5746097    6.4109207    2.0030739 
 5690000   0.80172431 -0.044122908   0.83879182     1.165971   -5.5771747    6.4159666    2.0047629 
 5700000   0.80510829 -0.081005063   0.83538847    1.1708925    -5.577124    6.4125125    2.0062809 
 5710000   0.80278963  -0.13846911   0.84737392    1.1675204   -5.5661164    6.4134903    2.0148943 
 5720000   0.79890122 -0.089450452   0.84862237    1.1618653   -5.5632131    6.4118355    2.0104877 
 5730000   0.79706831 -0.087334119   0.84982983    1.1591997   -5.5665604    6.4163902    2.0090295 
 5740000   0.80876832 -0.050045728   0.84915967    1.1762154   -5.5666643     6.415824     2.025375 
 5750000   0.80312503 -0.089696255    0.8470902    1.1680082   -5.5670288     6.414119    2.0150984 
 5760000   0.79914638 -0.087404613   0.84319238    1.1622219   -5.5711401    6.4143325    2.0054143 
 5770000   0.80085742 -0.088732107   0.84628414    1.1647103   -5.5681591    6.4144433    2.0109944 
 5780000   0.81018452 -0.091814374    0.8472615     1.178275    -5.566573    6.4138345    2.0255365 
 5790000   0.80153145  -0.15250199   0.84054557    1.1656906    -5.573763    6.4143086    2.0062361 
 5800000   0.80088587  -0.12719321   0.83961391    1.1647517   -5.5732051     6.412819    2.0043656 
 5810000   0.80268377  -0.12735589   0.83944512    1.1673664   -5.5736614    6.4131065    2.0068115 
 5820000    0.7989306 -0.092212363   0.84627482    1.1619081   -5.5699976    6.4162724    2.0081829 
 5830000   0.80000199  -0.11779626   0.83939041    1.1634662   -5.5720789    6.4114693    2.0028566 
 5840000   0.79784058 -0.086295609   0.85064911    1.1603228   -5.5650448    6.4156939    2.0109719 
 5850000   0.79759168 -0.037431554   0.84862506    1.1599608   -5.5652607    6.4138857    2.0085859 
 5860000   0.79944898  -0.11849374   0.83638208     1.162662   -5.5765705    6.4129526     1.999044 
 5870000   0.79342787 -0.081156439   0.85285821    1.1539053   -5.5629936    6.4158518    2.0067635 
 5880000   0.80132173 -0.099711981   0.85157471    1.1653856   -5.5633744    6.4149491    2.0169603 
 5890000   0.80065497   -0.1612451   0.83653899    1.1644159   -5.5796543    6.4161932    2.0009549 
 5900000   0.79435539  -0.06965655   0.83687413    1.1552542    -5.577006    6.4138801    1.9921283 
 5910000   0.80057217 -0.071758085   0.84642482    1.1642954   -5.5662516    6.4126764    2.0107203 
 5920000   0.80701373 -0.088550039    0.8451837    1.1736636   -5.5689946    6.4141783    2.0188473 
 5930000   0.79977907  -0.06878206   0.84227539     1.163142   -5.5701891    6.4124645    2.0054174 
 5940000   0.80935883 -0.026918002   0.84430035    1.1770741   -5.5689799    6.4132802    2.0213745 
 5950000   0.80806111  -0.10317651   0.84278295    1.1751868   -5.5751533    6.4179362    2.0179698 
 5960000   0.80003531  -0.14791023   0.84682423    1.1635147   -5.5668017    6.4136259    2.0103389 
 5970000   0.79911913  -0.13607326    0.8364008    1.1621823   -5.5771556    6.4135564    1.9985831 
 5980000    0.8033241 -0.098834289   0.84737779    1.1682977   -5.5660999    6.4134777    2.0156755 
 5990000   0.79916675 -0.019201319   0.84950033    1.1622515   -5.5666785    6.4161788    2.0117518 
 6000000   0.79584585 -0.042918674   0.84830493    1.1574218   -5.5684173    6.4167222    2.0057268 
Loop time of 45287.4 on 216 procs for 6000000 steps with 27950 atoms

Performance: 57234.510 tau/day, 132.487 timesteps/s
99.9% CPU use with 216 MPI tasks x 1 OpenMP threads

MPI task timing breakdown:
Section |  min time  |  avg time  |  max time  |%varavg| %total
---------------------------------------------------------------
Pair    | 582        | 670.04     | 790.16     | 137.5 |  1.48
Bond    | 11.737     | 15.047     | 18.848     |  36.5 |  0.03
Kspace  | 39222      | 39415      | 39580      |  33.2 | 87.03
Neigh   | 716.66     | 745.66     | 785.97     |  59.9 |  1.65
Comm    | 1255.2     | 1493.9     | 1722.5     | 339.4 |  3.30
Output  | 2.5777     | 2.6323     | 2.6426     |   0.4 |  0.01
Modify  | 2384.6     | 2536.6     | 2710.5     | 159.8 |  5.60
Other   |            | 408.4      |            |       |  0.90

Nlocal:    129.398 ave 224 max 106 min
Histogram: 55 73 46 24 7 9 1 0 0 1
Nghost:    955.69 ave 1138 max 842 min
Histogram: 24 40 24 28 29 26 23 15 3 4
Neighs:    4804.49 ave 12509 max 3309 min
Histogram: 90 62 37 15 8 3 0 0 0 1

Total # of neighbors = 1037769
Ave neighs/atom = 37.1295
Ave special neighs/atom = 0.62254
Neighbor list builds = 806939
Dangerous builds = 0
System init for write_restart ...
PPPM initialization ...
  using 12-bit tables for long-range coulomb (src/kspace.cpp:332)
  G vector (1/distance) = 1.0914
  grid = 75 75 75
  stencil order = 5
  estimated absolute RMS force accuracy = 0.000124342
  estimated relative force accuracy = 0.000124342
  using double precision FFTW3
  3d grid and FFT values/proc = 5832 2625
WARNING: Neighbor exclusions used with KSpace solver may give inconsistent Coulombic energies (src/neighbor.cpp:486)
Neighbor list info ...
  update every 1 steps, delay 0 steps, check yes
  max neighbors/atom: 2000, page size: 100000
  master list distance cutoff = 2.8
  ghost atom cutoff = 2.8
  binsize = 1.4, bins = 24 24 24
  12 neighbor lists, perpetual/occasional/extra = 2 10 0
  (1) pair lj/cut, perpetual
      attributes: half, newton on
      pair build: half/bin/newton
      stencil: half/bin/3d/newton
      bin: standard
  (2) pair coul/long, perpetual, skip from (1)
      attributes: half, newton on
      pair build: skip
      stencil: none
      bin: none
  (3) compute rdf, occasional, copy from (1)
      attributes: half, newton on
      pair build: copy
      stencil: none
      bin: none
  (4) compute rdf, occasional, copy from (1)
      attributes: half, newton on
      pair build: copy
      stencil: none
      bin: none
  (5) compute rdf, occasional, copy from (1)
      attributes: half, newton on
      pair build: copy
      stencil: none
      bin: none
  (6) compute rdf, occasional, copy from (1)
      attributes: half, newton on
      pair build: copy
      stencil: none
      bin: none
  (7) compute rdf, occasional, copy from (1)
      attributes: half, newton on
      pair build: copy
      stencil: none
      bin: none
  (8) compute rdf, occasional, copy from (1)
      attributes: half, newton on
      pair build: copy
      stencil: none
      bin: none
  (9) compute rdf, occasional, copy from (1)
      attributes: half, newton on
      pair build: copy
      stencil: none
      bin: none
  (10) compute rdf, occasional, copy from (1)
      attributes: half, newton on
      pair build: copy
      stencil: none
      bin: none
  (11) compute rdf, occasional, copy from (1)
      attributes: half, newton on
      pair build: copy
      stencil: none
      bin: none
  (12) compute rdf, occasional, copy from (1)
      attributes: half, newton on
      pair build: copy
      stencil: none
      bin: none
PPPM initialization ...
  using 12-bit tables for long-range coulomb (src/kspace.cpp:332)
  G vector (1/distance) = 1.0914
  grid = 75 75 75
  stencil order = 5
  estimated absolute RMS force accuracy = 0.000124342
  estimated relative force accuracy = 0.000124342
  using double precision FFTW3
  3d grid and FFT values/proc = 5832 2625
WARNING: Neighbor exclusions used with KSpace solver may give inconsistent Coulombic energies (src/neighbor.cpp:486)
Neighbor list info ...
  update every 1 steps, delay 0 steps, check yes
  max neighbors/atom: 2000, page size: 100000
  master list distance cutoff = 2.8
  ghost atom cutoff = 2.8
  binsize = 1.4, bins = 24 24 24
  12 neighbor lists, perpetual/occasional/extra = 2 10 0
  (1) pair lj/cut, perpetual
      attributes: half, newton on
      pair build: half/bin/newton
      stencil: half/bin/3d/newton
      bin: standard
  (2) pair coul/long, perpetual, skip from (1)
      attributes: half, newton on
      pair build: skip
      stencil: none
      bin: none
  (3) compute rdf, occasional, copy from (1)
      attributes: half, newton on
      pair build: copy
      stencil: none
      bin: none
  (4) compute rdf, occasional, copy from (1)
      attributes: half, newton on
      pair build: copy
      stencil: none
      bin: none
  (5) compute rdf, occasional, copy from (1)
      attributes: half, newton on
      pair build: copy
      stencil: none
      bin: none
  (6) compute rdf, occasional, copy from (1)
      attributes: half, newton on
      pair build: copy
      stencil: none
      bin: none
  (7) compute rdf, occasional, copy from (1)
      attributes: half, newton on
      pair build: copy
      stencil: none
      bin: none
  (8) compute rdf, occasional, copy from (1)
      attributes: half, newton on
      pair build: copy
      stencil: none
      bin: none
  (9) compute rdf, occasional, copy from (1)
      attributes: half, newton on
      pair build: copy
      stencil: none
      bin: none
  (10) compute rdf, occasional, copy from (1)
      attributes: half, newton on
      pair build: copy
      stencil: none
      bin: none
  (11) compute rdf, occasional, copy from (1)
      attributes: half, newton on
      pair build: copy
      stencil: none
      bin: none
  (12) compute rdf, occasional, copy from (1)
      attributes: half, newton on
      pair build: copy
      stencil: none
      bin: none
Setting up Verlet run ...
  Unit style    : lj
  Current step  : 6000000
  Time step     : 0.005
Per MPI rank memory allocation (min/avg/max) = 17.52 | 18.82 | 19.6 Mbytes
Step Lx Ly Lz Press Pxx Pyy Pzz PotEng Temp 
 6000000     32.52804     32.52804     32.52804 -0.087144237  -0.17756808   0.28172126   -0.3655859   0.84830493   0.79584585 
 6000010    33.178601    32.207559    32.207559 -0.060567045    -1.133114   0.51366751   0.43774534   0.85942858   0.80319249 
 6000020    33.829161    31.896367    31.896367  0.050360077   -1.2479081    0.6887262    0.7102621   0.87645156    0.8222553 
 6000030    34.479722    31.594025    31.594025  0.062924318    -1.456892   0.77500559   0.87065936   0.89744795   0.84163732 
 6000040    35.130283    31.300121    31.300121   0.23511378   -1.3904035    1.0180296    1.0777153   0.93583618    0.8518096 
 6000050    35.780844    31.014269    31.014269   0.34052056   -1.2579628    1.1592669    1.1202575   0.94784576   0.87879448 
 6000060    36.431405    30.736109    30.736109   0.39269084   -1.2170475     1.217467     1.177653   0.96698167    0.8979264 
 6000070    37.081965    30.465301    30.465301   0.40454643   -1.2496962      1.21868    1.2446554   0.98940769   0.91478471 
 6000080    37.732526    30.201527    30.201527   0.58918543   -1.0174066    1.3818978    1.4030651    1.0119122   0.93077971 
 6000090    38.383087    29.944488    29.944488   0.61763726  -0.96465758    1.3703851    1.4471842    1.0292315   0.94936922 
 6000100    39.033648    29.693902    29.693902   0.65043335  -0.93631071    1.4424558     1.445155    1.0510914   0.96185228 
Loop time of 0.87587 on 216 procs for 100 steps with 27950 atoms

Performance: 49322.387 tau/day, 114.172 timesteps/s
99.9% CPU use with 216 MPI tasks x 1 OpenMP threads

MPI task timing breakdown:
Section |  min time  |  avg time  |  max time  |%varavg| %total
---------------------------------------------------------------
Pair    | 0.0069189  | 0.01064    | 0.036863   |   3.7 |  1.21
Bond    | 1.8835e-05 | 0.00019814 | 0.00051975 |   0.0 |  0.02
Kspace  | 0.61355    | 0.64323    | 0.65551    |   0.9 | 73.44
Neigh   | 0.046749   | 0.049218   | 0.052782   |   0.5 |  5.62
Comm    | 0.034322   | 0.043657   | 0.05426    |   1.9 |  4.98
Output  | 0.0034022  | 0.0054529  | 0.0073166  |   0.9 |  0.62
Modify  | 0.067431   | 0.080685   | 0.1009     |   2.7 |  9.21
Other   |            | 0.04278    |            |       |  4.88

Nlocal:    129.398 ave 228 max 104 min
Histogram: 45 79 49 26 11 5 0 0 0 1
Nghost:    963.866 ave 1141 max 845 min
Histogram: 14 35 35 27 33 26 21 14 6 5
Neighs:    4814.72 ave 12604 max 3271 min
Histogram: 82 58 45 20 8 2 0 0 0 1

Total # of neighbors = 1039980
Ave neighs/atom = 37.2086
Ave special neighs/atom = 0.62254
Neighbor list builds = 49
Dangerous builds = 0
PPPM initialization ...
  using 12-bit tables for long-range coulomb (src/kspace.cpp:332)
  G vector (1/distance) = 1.10112
  grid = 90 72 72
  stencil order = 5
  estimated absolute RMS force accuracy = 0.000107521
  estimated relative force accuracy = 0.000107521
  using double precision FFTW3
  3d grid and FFT values/proc = 5780 2160
WARNING: Neighbor exclusions used with KSpace solver may give inconsistent Coulombic energies (src/neighbor.cpp:486)
Neighbor list info ...
  update every 1 steps, delay 0 steps, check yes
  max neighbors/atom: 2000, page size: 100000
  master list distance cutoff = 2.8
  ghost atom cutoff = 2.8
  binsize = 1.4, bins = 28 22 22
  12 neighbor lists, perpetual/occasional/extra = 2 10 0
  (1) pair lj/cut, perpetual
      attributes: half, newton on
      pair build: half/bin/newton
      stencil: half/bin/3d/newton
      bin: standard
  (2) pair coul/long, perpetual, skip from (1)
      attributes: half, newton on
      pair build: skip
      stencil: none
      bin: none
  (3) compute rdf, occasional, copy from (1)
      attributes: half, newton on
      pair build: copy
      stencil: none
      bin: none
  (4) compute rdf, occasional, copy from (1)
      attributes: half, newton on
      pair build: copy
      stencil: none
      bin: none
  (5) compute rdf, occasional, copy from (1)
      attributes: half, newton on
      pair build: copy
      stencil: none
      bin: none
  (6) compute rdf, occasional, copy from (1)
      attributes: half, newton on
      pair build: copy
      stencil: none
      bin: none
  (7) compute rdf, occasional, copy from (1)
      attributes: half, newton on
      pair build: copy
      stencil: none
      bin: none
  (8) compute rdf, occasional, copy from (1)
      attributes: half, newton on
      pair build: copy
      stencil: none
      bin: none
  (9) compute rdf, occasional, copy from (1)
      attributes: half, newton on
      pair build: copy
      stencil: none
      bin: none
  (10) compute rdf, occasional, copy from (1)
      attributes: half, newton on
      pair build: copy
      stencil: none
      bin: none
  (11) compute rdf, occasional, copy from (1)
      attributes: half, newton on
      pair build: copy
      stencil: none
      bin: none
  (12) compute rdf, occasional, copy from (1)
      attributes: half, newton on
      pair build: copy
      stencil: none
      bin: none
Setting up Verlet run ...
  Unit style    : lj
  Current step  : 6000100
  Time step     : 0.005
Per MPI rank memory allocation (min/avg/max) = 17.53 | 18.82 | 19.55 Mbytes
Step Lx Ly Lz Press Pxx Pyy Pzz PotEng Temp 
 6000100    39.033648    29.693902    29.693902   0.41547611   -1.2354411      1.87797   0.60389938    1.0563612   0.96185227 
 6010000    39.033648    29.693902    29.693902 -0.059979499 -0.049409265 -0.074193478 -0.056335754   0.84105808   0.80640414 
 6020000    39.033648    29.693902    29.693902 -0.049545787 -0.011751601 -0.045812745 -0.091073015   0.85004046   0.79902759 
 6030000    39.033648    29.693902    29.693902  -0.08799082 -0.036563745 -0.076025812   -0.1513829     0.850815   0.80073391 
 6040000    39.033648    29.693902    29.693902 -0.070266305 -0.013360641 -0.089876486  -0.10756179   0.84011799   0.80133097 
 6050000    39.033648    29.693902    29.693902  -0.11296455  -0.12397563  -0.10256814  -0.11234989    0.8455648   0.80024495 
 6060000    39.033648    29.693902    29.693902  -0.20180615   -0.2987885  -0.17402256   -0.1326074   0.84111865   0.79812044 
 6070000    39.033648    29.693902    29.693902  -0.10724318 -0.071608074  -0.13457099  -0.11555047   0.85534468     0.805431 
 6080000    39.033648    29.693902    29.693902 -0.097639762 -0.062767577  -0.12113377  -0.10901794   0.84364463   0.80385956 
 6090000    39.033648    29.693902    29.693902 -0.032041001 -0.047485448 0.0087544365 -0.057391992   0.85234987   0.80300325 
 6100000    39.033648    29.693902    29.693902 -0.096426166  -0.12755541 -0.029994806  -0.13172828    0.8407048   0.79840172 
 6100100    39.033648    29.693902    29.693902  -0.11724931  -0.16072995 -0.019270561  -0.17174741    0.8411681   0.79910087 
Loop time of 745.154 on 216 procs for 100000 steps with 27950 atoms

Performance: 57974.607 tau/day, 134.200 timesteps/s
99.9% CPU use with 216 MPI tasks x 1 OpenMP threads

MPI task timing breakdown:
Section |  min time  |  avg time  |  max time  |%varavg| %total
---------------------------------------------------------------
Pair    | 7.2992     | 10.661     | 24.858     | 107.3 |  1.43
Bond    | 0.022226   | 0.20735    | 0.48512    |  26.5 |  0.03
Kspace  | 636.3      | 654.29     | 664        |  21.4 | 87.81
Neigh   | 11.719     | 12.403     | 13.224     |   8.7 |  1.66
Comm    | 20.87      | 29.813     | 40.69      |  81.4 |  4.00
Output  | 0.042662   | 0.042696   | 0.044033   |   0.0 |  0.01
Modify  | 22.966     | 29.419     | 35.736     |  47.5 |  3.95
Other   |            | 8.318      |            |       |  1.12

Nlocal:    129.398 ave 194 max 104 min
Histogram: 21 71 41 30 27 12 5 3 2 4
Nghost:    966.736 ave 1138 max 849 min
Histogram: 18 37 25 31 30 21 24 13 13 4
Neighs:    4808.09 ave 10083 max 3169 min
Histogram: 51 68 32 33 12 10 4 2 2 2

Total # of neighbors = 1038547
Ave neighs/atom = 37.1573
Ave special neighs/atom = 0.62254
Neighbor list builds = 13431
Dangerous builds = 0
Total wall time: 14:50:21
