ITEM: TIMESTEP
0
ITEM: NUMBER OF ATOMS
950
ITEM: BOX BOUNDS pp pp pp
7.3598007983716585e-01 3.3264019920151441e+01
7.3598007983716585e-01 3.3264019920151441e+01
7.3598007983716585e-01 3.3264019920151441e+01
ITEM: ATOMS id mol type x y z 
13797 0 5 1.22232 2.08942 2.0258 
18939 0 5 2.06185 0.767858 2.89859 
15814 0 5 0.791096 4.01482 4.31161 
25456 0 5 1.34745 2.88825 5.54031 
14671 0 5 2.38327 2.93349 6.05354 
15301 0 5 5.89653 3.91175 4.83054 
26550 0 5 3.94476 3.61512 7.36409 
26719 0 5 2.89316 4.83815 7.05104 
23264 0 5 3.55536 5.83122 7.29493 
15352 0 5 1.694 4.86667 8.36133 
25150 0 5 1.36567 4.37292 9.48971 
3820 0 5 5.58277 4.32228 9.91231 
15863 0 5 3.37464 4.11678 14.1934 
17870 0 5 3.94603 5.03779 14.0149 
256 0 5 2.63974 3.93134 15.9695 
19472 0 5 4.04322 2.48067 18.3566 
23302 0 5 3.40534 3.47517 17.1262 
15874 0 5 5.29441 3.1145 20.1302 
9851 0 5 3.7345 5.77001 22.7383 
16914 0 5 5.20912 4.88099 23.9175 
7444 0 5 2.30412 0.857988 25.6294 
4137 0 5 5.6624 3.33345 25.2144 
12831 0 5 1.36427 4.22126 26.2356 
8880 0 5 4.25933 9.36546 4.18631 
19694 0 5 4.82317 8.57034 5.38958 
5167 0 5 4.95416 10.164 5.9074 
13448 0 5 5.32864 9.00476 7.84971 
6196 0 5 1.36956 7.72388 9.06825 
4519 0 5 4.55751 9.10324 8.81961 
6112 0 5 0.756677 10.0153 8.95378 
24040 0 5 4.60536 6.99769 10.463 
17305 0 5 1.31595 9.09668 11.2896 
2401 0 5 4.76059 11.0125 10.4279 
18565 0 5 1.68707 7.87624 12.8198 
13548 0 5 1.96284 9.71463 12.9812 
23527 0 5 1.36047 9.34192 15.0795 
26939 0 5 1.2492 8.9304 16.0349 
243 0 5 4.46448 9.84851 15.7492 
19078 0 5 0.974335 9.65857 17.9487 
23131 0 5 4.41129 8.69314 17.3939 
3085 0 5 1.16297 9.0431 19.2605 
26229 0 5 3.47798 10.7484 21.6648 
24620 0 5 3.98131 7.31159 24.235 
2673 0 5 3.65907 10.0505 25.6002 
8312 0 5 1.45469 7.40954 27.3439 
25210 0 5 4.11209 8.46786 27.8817 
2411 0 5 0.859549 8.9182 29.9469 
21703 0 5 4.00809 10.3208 30.4513 
23449 0 5 0.811473 8.23514 32.1988 
4807 0 5 2.5619 8.87308 33.1251 
710 0 5 5.20963 13.5051 1.64381 
2349 0 5 4.60234 16.1341 1.6212 
3043 0 5 5.84859 16.4701 2.03192 
15858 0 5 4.7001 14.5949 3.25416 
15107 0 5 3.04495 16.5591 3.37665 
18140 0 5 4.3237 13.9381 5.51925 
17880 0 5 3.87982 16.3136 4.80933 
24494 0 5 3.87712 12.0981 6.63715 
16505 0 5 5.24834 13.9353 9.10678 
15119 0 5 1.70419 15.391 8.52475 
8463 0 5 2.86614 16.9792 8.97424 
13751 0 5 5.29909 16.1472 8.6322 
21453 0 5 2.09184 12.3561 11.2975 
18441 0 5 5.53392 11.6819 10.2442 
5449 0 5 5.12521 15.9433 10.2923 
22773 0 5 2.93646 13.5541 14.2412 
3540 0 5 4.67332 13.2227 16.8437 
16868 0 5 5.13134 12.3455 16.7924 
7752 0 5 2.39736 13.6412 16.7242 
8964 0 5 5.04081 14.0288 16.294 
5359 0 5 5.8042 13.3549 18.4948 
6639 0 5 1.47042 11.736 20.1366 
15298 0 5 2.78512 16.6142 20.5319 
10677 0 5 3.86653 14.0979 22.3055 
2320 0 5 4.36936 13.5223 27.4858 
16918 0 5 2.93344 14.6737 28.683 
11574 0 5 4.17772 12.759 30.3735 
23873 0 5 3.41921 16.4496 33.0132 
24036 0 5 3.57385 17.5919 3.06679 
22676 0 5 1.8301 19.2453 3.47586 
12201 0 5 4.10572 18.8659 4.08381 
19438 0 5 5.7994 22.26 3.81049 
6691 0 5 4.62134 22.1775 3.03333 
7637 0 5 0.915073 19.6863 5.23432 
26830 0 5 1.68812 21.1139 9.68615 
9665 0 5 4.69135 22.2666 9.67606 
18444 0 5 3.40136 18.4792 10.8232 
693 0 5 3.25253 19.4769 11.2722 
25661 0 5 4.3026 21.6355 12.5877 
10830 0 5 4.16477 22.2098 14.1013 
7567 0 5 5.54356 20.7494 15.5049 
12616 0 5 2.53698 19.0761 17.204 
23435 0 5 2.63721 19.3434 18.2875 
6867 0 5 1.19214 20.8015 18.9728 
10953 0 5 1.41688 18.1158 21.8675 
4446 0 5 1.82697 21.6333 21.1396 
26506 0 5 3.41702 19.3329 22.4454 
20916 0 5 2.6807 17.513 25.8802 
13082 0 5 3.78622 20.8516 24.8302 
16186 0 5 5.5608 19.846 27.031 
18203 0 5 4.96549 21.2517 26.6803 
15307 0 5 2.91405 19.2782 28.6366 
1289 0 5 3.89838 17.2163 29.8426 
14818 0 5 2.53251 19.8766 30.6788 
22432 0 5 5.99173 19.2256 30.5188 
24821 0 5 1.41057 21.2725 30.1293 
14708 0 5 5.75713 21.6057 30.3699 
15711 0 5 2.68847 20.4873 31.566 
15235 0 5 2.46681 21.699 33.0505 
11958 0 5 2.71374 23.3901 1.36459 
16282 0 5 4.20263 23.5337 5.96854 
17937 0 5 2.9543 23.9173 5.73642 
26923 0 5 5.11554 25.0308 4.49605 
24728 0 5 4.28918 23.0372 6.93698 
3778 0 5 3.42406 23.7075 9.26205 
20922 0 5 3.77522 26.3911 8.68 
16017 0 5 1.69161 26.6984 10.4204 
589 0 5 3.57074 27.1845 10.647 
25636 0 5 1.80192 22.9601 12.2569 
20238 0 5 5.7285 25.9468 12.9935 
12272 0 5 2.51251 26.1467 12.4689 
9481 0 5 1.35179 22.9269 14.9536 
12404 0 5 5.09709 23.0466 14.0635 
17120 0 5 4.50536 23.8516 15.0191 
3102 0 5 2.2688 24.3752 15.9783 
9141 0 5 2.1604 23.7288 19.6689 
12520 0 5 3.84276 22.9287 18.8195 
5946 0 5 4.72856 26.0547 19.2274 
20086 0 5 5.25262 25.2293 21.1639 
8455 0 5 4.49129 27.8329 21.728 
7859 0 5 2.10891 23.2536 24.7769 
4591 0 5 3.13929 22.9948 25.9936 
23786 0 5 4.14461 24.2714 25.008 
3854 0 5 2.1769 27.4517 25.8273 
16874 0 5 4.20025 23.4877 28.1119 
8462 0 5 1.36882 25.091 31.0459 
7678 0 5 6.05375 26.7307 31.513 
26503 0 5 5.33593 26.264 33.1999 
1071 0 5 6.01026 31.1572 1.05353 
16893 0 5 2.05323 28.8493 2.88148 
24878 0 5 3.22138 29.34 3.27642 
4647 0 5 1.59395 28.6445 4.44966 
3753 0 5 1.44077 32.5371 9.39895 
7234 0 5 6.00638 32.9198 8.39623 
14250 0 5 3.26389 29.5274 11.0069 
4812 0 5 5.84324 28.3581 18.2047 
14251 0 5 2.37426 32.1142 18.6612 
19486 0 5 0.965034 33.0884 17.2941 
12069 0 5 2.12937 29.5578 20.4526 
23815 0 5 0.826777 32.1664 19.3102 
7588 0 5 4.62417 32.6555 18.9605 
8062 0 5 4.22362 31.7707 20.8511 
14131 0 5 0.921051 32.0935 24.7033 
7240 0 5 2.10184 28.3467 27.4979 
23879 0 5 1.48067 33.2611 28.4312 
774 0 5 2.98517 29.2712 31.387 
24173 0 5 4.77576 28.4438 30.6922 
21851 0 5 2.50117 30.0711 29.8192 
1634 0 5 1.39159 28.3082 32.2833 
20674 0 5 6.23784 1.25089 1.92156 
26929 0 5 8.80239 6.0831 2.05854 
17388 0 5 8.01826 1.74659 3.1605 
17994 0 5 10.6913 1.09996 3.0053 
22605 0 5 8.62601 6.12923 4.08497 
21483 0 5 8.73261 4.45354 3.01291 
3708 0 5 9.88002 4.66367 3.23066 
21550 0 5 7.91451 3.59777 6.06637 
2884 0 5 9.45952 3.08694 5.76857 
15961 0 5 10.3203 3.69805 5.97717 
771 0 5 7.19561 4.74534 5.48625 
12919 0 5 9.40756 3.52318 7.7327 
5663 0 5 8.40769 1.73254 9.00446 
5344 0 5 8.20646 3.74687 8.56406 
1464 0 5 10.9336 4.51717 9.15272 
5706 0 5 11.1749 2.54638 10.6438 
25536 0 5 7.53304 5.12908 10.3568 
4303 0 5 10.2108 5.38134 9.81797 
22859 0 5 10.9812 1.89284 12.6489 
12420 0 5 10.3014 3.5379 14.1975 
24622 0 5 10.9869 1.1402 21.8314 
2408 0 5 6.18758 0.824843 23.5382 
7085 0 5 7.15284 0.950857 23.9372 
16735 0 5 7.41309 2.74656 23.4191 
15897 0 5 10.4057 3.82722 23.3472 
14012 0 5 11.2639 1.91717 24.5341 
15904 0 5 9.29967 1.67655 27.0489 
9337 0 5 11.3453 1.3382 27.2047 
8338 0 5 10.2622 0.92642 27.7365 
26209 0 5 9.92835 2.00167 28.4056 
22993 0 5 10.0308 5.38803 29.1238 
16849 0 5 6.30506 6.99277 1.32705 
2245 0 5 8.18517 10.5985 2.66625 
4335 0 5 9.24991 9.85419 6.05495 
7226 0 5 8.47551 9.25556 6.42979 
8776 0 5 10.4103 8.78909 7.18189 
6354 0 5 10.9225 9.32987 6.37566 
19291 0 5 7.38264 10.0075 6.48179 
6983 0 5 6.42437 8.83627 7.98566 
22209 0 5 8.53315 10.0462 9.65358 
767 0 5 8.24429 11.5503 8.16816 
4766 0 5 9.10585 8.33465 10.7501 
17298 0 5 6.65631 8.41615 12.7935 
5116 0 5 10.1914 9.57935 12.6664 
5000 0 5 11.5104 9.43486 14.2671 
667 0 5 6.3465 10.4771 14.3857 
9149 0 5 9.31569 6.89487 15.6247 
24168 0 5 7.11571 7.97778 15.8062 
19179 0 5 7.58257 9.10392 16.4522 
23600 0 5 9.70152 8.91436 15.6065 
24341 0 5 6.28373 7.17841 19.6727 
17544 0 5 7.29 7.28685 19.1562 
17990 0 5 6.51038 6.70502 20.5628 
6653 0 5 7.5174 9.64547 22.3696 
22455 0 5 8.66404 9.40024 22.1839 
25479 0 5 6.72012 11.1649 25.3596 
12810 0 5 7.05858 10.5209 27.5164 
14738 0 5 7.37347 10.0204 28.5969 
24085 0 5 10.0881 10.4735 30.7128 
7739 0 5 9.12977 13.1288 0.806394 
6745 0 5 6.2401 15.1046 1.05705 
5750 0 5 10.1566 14.3227 4.11563 
8454 0 5 7.46633 12.1912 5.64647 
20710 0 5 7.81898 16.1815 6.00166 
761 0 5 6.86434 15.1322 7.16414 
2436 0 5 8.91119 14.8156 7.60644 
2923 0 5 6.60614 14.3794 8.52841 
10912 0 5 9.59302 16.805 8.45183 
25906 0 5 9.27794 15.1641 12.7051 
10634 0 5 11.3172 14.0468 11.5825 
26679 0 5 7.39107 13.6343 14.3699 
8190 0 5 9.25744 14.1766 14.9437 
19983 0 5 8.00729 16.4125 20.0334 
5174 0 5 9.86584 12.0175 20.997 
6931 0 5 11.3163 15.2747 26.3014 
21785 0 5 11.0184 11.875 27.87 
14343 0 5 6.84592 15.2597 28.7342 
4638 0 5 10.1667 17.024 0.80355 
24656 0 5 9.64582 18.5063 5.38578 
9553 0 5 8.70277 22.0194 5.3635 
10671 0 5 11.2094 21.985 4.63947 
22540 0 5 8.45125 17.3501 7.20485 
6515 0 5 8.39243 19.6241 7.95218 
1758 0 5 8.56943 17.6722 10.4056 
10913 0 5 7.62502 20.2789 11.0759 
13237 0 5 10.4541 19.2573 11.3307 
22427 0 5 10.4465 20.6009 9.92409 
2913 0 5 10.3703 21.4393 11.3931 
13646 0 5 11.5463 18.5368 11.8112 
16900 0 5 11.1037 18.8187 12.9571 
13571 0 5 7.57177 21.3435 12.7305 
25126 0 5 6.71399 20.4175 15.5886 
4350 0 5 11.3448 20.2087 15.3648 
4170 0 5 7.05717 22.2093 16.2177 
8589 0 5 8.1685 22.3723 15.3299 
26165 0 5 8.46481 20.628 16.328 
9244 0 5 8.06455 21.6746 16.4785 
16195 0 5 9.52911 21.7317 18.0648 
16423 0 5 6.81702 20.3898 19.9388 
9150 0 5 11.0698 19.3769 19.76 
14291 0 5 7.20334 20.6103 22.1117 
2414 0 5 11.2742 18.0143 22.4291 
16530 0 5 10.9418 21.185 23.4644 
4472 0 5 8.80237 20.0219 26.189 
1659 0 5 6.28963 21.5953 26.4652 
25214 0 5 10.5074 18.6406 32.1175 
11576 0 5 8.20316 22.9852 1.0632 
18762 0 5 9.77017 23.0086 2.44171 
25976 0 5 7.82065 25.8295 1.0343 
17877 0 5 9.20258 25.9985 2.51027 
23152 0 5 8.44004 22.8361 4.00807 
21478 0 5 8.14302 23.7828 3.47664 
21868 0 5 7.47644 24.3515 2.60602 
11065 0 5 9.0637 25.1484 4.38583 
11896 0 5 8.82274 23.9239 7.286 
12288 0 5 10.956 22.9592 6.87992 
5948 0 5 7.76409 23.1217 9.5323 
24166 0 5 7.66174 25.1662 8.96969 
25305 0 5 10.4422 24.1652 9.81667 
18666 0 5 9.23464 27.0674 11.5259 
11638 0 5 8.27774 23.4028 14.6172 
5257 0 5 8.78615 27.4323 13.5663 
25918 0 5 8.13671 26.1579 15.1308 
9269 0 5 9.0518 23.7035 15.2231 
3978 0 5 6.9979 24.9445 17.4709 
5713 0 5 7.11957 25.5607 20.6648 
13191 0 5 10.4016 22.4916 23.2504 
4773 0 5 9.9074 23.056 25.5421 
6929 0 5 7.15147 26.5338 25.7397 
13024 0 5 7.51079 25.4948 26.4808 
24530 0 5 10.2591 27.1036 26.4944 
6935 0 5 9.92703 26.1118 26.9406 
9502 0 5 10.5968 24.0988 28.4866 
9535 0 5 7.70911 24.8611 28.7719 
21005 0 5 9.65683 22.4888 30.7511 
9351 0 5 7.2098 25.2182 32.4487 
21195 0 5 8.3157 28.3179 1.83664 
12815 0 5 6.89651 32.9469 1.83587 
390 0 5 10.4269 29.9732 12.1831 
5247 0 5 10.5649 30.0856 16.9087 
18629 0 5 7.93072 28.649 19.0492 
14149 0 5 6.21703 31.3245 19.1126 
14862 0 5 9.98268 31.8169 19.0781 
10555 0 5 10.2389 29.2916 21.4419 
14457 0 5 11.0739 31.2504 25.8709 
13842 0 5 10.1646 30.517 28.7543 
23074 0 5 11.1099 30.8605 28.202 
6409 0 5 9.27724 32.3366 29.4048 
1612 0 5 9.96929 28.9922 31.518 
3105 0 5 6.42636 32.9944 31.6446 
14465 0 5 10.2689 32.7394 31.8266 
20351 0 5 14.0087 3.0759 6.56518 
13746 0 5 14.3405 3.02788 8.76298 
5549 0 5 16.2322 4.48219 8.18364 
15919 0 5 14.5438 1.61463 11.1984 
21788 0 5 15.3763 1.23098 12.8708 
9226 0 5 12.8758 5.53437 12.6618 
5924 0 5 12.9183 2.17825 15.8332 
7299 0 5 16.6101 1.62638 15.4232 
12546 0 5 13.5696 2.95587 16.3698 
24634 0 5 14.0222 3.95842 16.4936 
22184 0 5 15.1005 6.04591 15.6544 
17282 0 5 14.0355 2.65435 18.0012 
9572 0 5 16.5656 2.6613 18.6244 
15685 0 5 13.1746 5.42881 18.3408 
159 0 5 15.2118 5.30963 17.7276 
8469 0 5 11.8864 4.32571 21.1168 
1771 0 5 15.1071 3.4192 21.1889 
19375 0 5 16.1024 2.84526 21.4744 
24481 0 5 14.5522 5.54847 20.656 
4351 0 5 14.8657 4.49695 21.4866 
24993 0 5 16.3553 5.76643 22.3406 
19959 0 5 15.0701 3.90648 24.2072 
21319 0 5 12.296 5.79203 23.8167 
12673 0 5 14.694 2.00773 24.9117 
12931 0 5 15.8758 3.26873 24.6774 
19243 0 5 12.5636 6.09137 25.2341 
16049 0 5 11.8521 4.91951 24.3502 
3448 0 5 11.9516 1.18681 28.721 
22795 0 5 13.6847 2.73958 28.5721 
15218 0 5 12.9937 1.96694 30.5009 
11900 0 5 13.8263 1.20366 30.4277 
22195 0 5 12.0987 5.81116 32.1625 
13080 0 5 15.6916 6.97255 2.27142 
4762 0 5 13.4548 9.53432 2.0826 
26545 0 5 12.0746 11.1808 0.785923 
8255 0 5 16.5535 10.3741 2.82396 
4779 0 5 12.0459 9.74905 4.43755 
18662 0 5 13.9247 9.07541 7.49977 
3715 0 5 12.8652 7.71737 7.9765 
17165 0 5 13.4322 6.54028 9.7214 
7178 0 5 13.2899 10.3878 10.9684 
15846 0 5 11.982 7.34802 11.8987 
2784 0 5 16.3488 7.85385 13.2091 
22042 0 5 15.8073 6.46636 14.6231 
8583 0 5 13.8246 11.4841 13.645 
16941 0 5 12.765 6.65191 16.5375 
1929 0 5 14.7348 7.96761 15.7319 
16747 0 5 14.8835 9.47642 17.2165 
17268 0 5 15.4051 9.87622 18.1761 
23457 0 5 13.9275 6.58288 20.4995 
26657 0 5 15.4323 7.35355 20.28 
23964 0 5 12.0035 6.16585 21.529 
10699 0 5 15.3066 7.59087 22.0988 
8980 0 5 16.5453 8.67563 20.6583 
1808 0 5 11.8235 10.2585 20.7945 
24748 0 5 15.8947 7.54035 23.9315 
24542 0 5 11.8337 11.1507 22.9219 
23657 0 5 15.8003 9.24118 24.6509 
13697 0 5 14.671 10.4201 24.9154 
773 0 5 12.851 8.71255 27.0155 
9263 0 5 11.7415 8.93153 26.8514 
24747 0 5 13.1013 9.86203 27.1348 
9915 0 5 15.6833 10.7567 29.213 
22653 0 5 16.6109 6.5101 31.0892 
19569 0 5 12.0033 6.43995 32.936 
996 0 5 13.5423 7.03711 31.6385 
24744 0 5 14.0221 14.8878 6.75027 
15890 0 5 16.0885 14.9067 7.59664 
10155 0 5 13.1899 12.6201 8.44744 
3115 0 5 16.9194 13.5525 9.62904 
8294 0 5 15.5268 12.3675 11.5551 
8777 0 5 16.1034 14.8936 11.1604 
24060 0 5 12.4586 16.1059 10.9951 
23693 0 5 11.7207 12.2051 12.3956 
10971 0 5 13.0307 13.4516 13.3184 
24114 0 5 16.82 15.7598 13.1173 
4368 0 5 15.4406 12.74 15.0053 
19823 0 5 16.4436 16.7772 16.827 
4496 0 5 16.7179 12.6018 18.8311 
14396 0 5 13.2452 15.2149 20.5305 
24311 0 5 12.3988 16.1179 22.4067 
1880 0 5 15.3527 15.7968 21.765 
7515 0 5 14.6632 14.454 25.2982 
192 0 5 12.5204 13.3433 28.905 
13668 0 5 11.8243 12.8063 31.4085 
8565 0 5 14.0002 17.7197 1.54827 
1786 0 5 12.3055 19.3005 1.98298 
25450 0 5 16.6721 21.9101 2.8303 
15333 0 5 14.9098 20.5024 4.47565 
18726 0 5 14.4931 22.0465 4.49311 
16635 0 5 14.0039 17.9735 6.33825 
20995 0 5 11.8904 20.123 7.81926 
20442 0 5 12.4193 18.7982 8.67071 
15032 0 5 13.7127 17.9185 9.42892 
8904 0 5 15.5436 19.9838 9.15903 
24485 0 5 13.0836 22.3654 12.2635 
17676 0 5 12.9208 17.5661 14.6753 
8061 0 5 14.2168 19.8646 15.0302 
1933 0 5 13.0335 21.9421 13.6347 
7556 0 5 14.507 18.3825 16.4481 
12076 0 5 13.8535 18.43 19.1999 
19325 0 5 15.0901 18.3971 21.5604 
1135 0 5 14.3103 20.8308 21.4139 
26435 0 5 12.2976 19.3986 23.9925 
26661 0 5 12.7478 20.2576 23.5393 
20962 0 5 14.1943 22.3501 27.5389 
6353 0 5 12.434 17.6477 28.2532 
21792 0 5 14.3837 18.7791 32.7743 
25903 0 5 14.9651 23.8768 1.90185 
3886 0 5 11.5811 24.4153 0.837392 
12106 0 5 13.4931 27.6267 2.14209 
25458 0 5 16.6073 25.0558 3.73391 
3106 0 5 15.5226 25.3795 5.74343 
24652 0 5 14.3089 27.566 5.84585 
20397 0 5 14.908 22.9054 7.84907 
11559 0 5 12.7504 25.3908 7.32175 
26076 0 5 14.331 24.5442 9.38534 
2639 0 5 13.1843 22.4264 10.8617 
23473 0 5 12.456 24.2458 10.2493 
18476 0 5 14.332 23.8741 13.1766 
6383 0 5 16.9152 22.8751 11.7951 
4722 0 5 12.5954 24.8584 12.5589 
10701 0 5 14.9671 25.9399 13.3675 
14346 0 5 13.9147 27.0454 14.2391 
13711 0 5 16.18 25.7447 15.2284 
10428 0 5 15.4967 24.526 18.189 
26018 0 5 15.2965 26.5595 17.4042 
18472 0 5 15.4041 22.532 20.3161 
16172 0 5 14.4667 27.2635 19.2375 
10916 0 5 13.6257 26.5004 21.7782 
14711 0 5 15.2619 27.1291 21.597 
5678 0 5 16.9714 23.1679 22.6841 
3362 0 5 13.9223 25.9219 22.5994 
11695 0 5 13.267 27.5824 23.4248 
12555 0 5 12.9267 24.4298 25.3227 
6375 0 5 14.3131 26.2884 24.7049 
2483 0 5 12.0391 23.0181 27.5648 
14658 0 5 12.6946 27.7584 28.8381 
23090 0 5 14.3905 23.2602 30.8932 
1423 0 5 13.4009 25.8572 31.405 
2869 0 5 16.5364 27.0443 30.9165 
10681 0 5 12.9226 24.0065 32.1821 
19512 0 5 12.5218 27.2853 32.7722 
2354 0 5 15.219 27.8459 1.32438 
26231 0 5 14.2941 28.1303 4.04249 
2775 0 5 12.5356 30.4222 3.02126 
15299 0 5 16.1647 32.0103 5.6197 
1924 0 5 16.9324 29.6769 6.6411 
3015 0 5 16.2072 31.5119 7.51019 
21255 0 5 13.6931 32.3014 8.85468 
9690 0 5 16.5858 32.8902 9.4766 
21199 0 5 13.8619 31.0604 10.3776 
10550 0 5 15.4861 31.5804 11.3331 
24315 0 5 12.7117 28.9171 11.5901 
3634 0 5 13.738 29.0243 11.8371 
12416 0 5 13.3571 31.4453 12.6136 
10546 0 5 13.6104 30.6688 11.9718 
13233 0 5 14.2305 27.945 14.0982 
240 0 5 12.4689 31.0032 14.732 
18707 0 5 13.3121 30.5135 15.1499 
20852 0 5 14.1307 30.0258 14.7046 
20834 0 5 13.4484 31.6135 14.3977 
20964 0 5 16.3109 32.1916 14.8248 
23890 0 5 12.647 29.42 16.4544 
6294 0 5 13.1326 31.0841 16.8674 
5402 0 5 16.1636 29.6407 18.326 
391 0 5 16.0594 28.4088 18.3372 
4327 0 5 16.6235 29.346 17.125 
24337 0 5 14.3803 29.7065 17.5524 
12494 0 5 11.7746 29.7182 19.0728 
18972 0 5 15.2844 30.9261 19.2584 
10822 0 5 12.8322 28.9816 21.8286 
24657 0 5 15.8558 28.702 25.4728 
15671 0 5 13.1323 33.1153 25.1787 
6958 0 5 12.5357 31.0165 29.5909 
24024 0 5 15.4841 30.5892 28.56 
3712 0 5 16.9649 31.2831 28.8298 
15114 0 5 15.6487 32.5945 28.8189 
10344 0 5 20.4088 2.50245 1.02796 
7564 0 5 20.0431 1.52217 7.18245 
15305 0 5 18.7046 4.62779 6.29928 
21645 0 5 18.6336 6.06605 6.66314 
10300 0 5 17.1413 2.32364 9.18689 
9432 0 5 21.0605 1.57761 9.0291 
8972 0 5 18.916 3.1003 8.20356 
9446 0 5 17.0423 2.90407 11.0322 
402 0 5 20.143 4.75879 14.4367 
20420 0 5 18.8868 0.989842 16.4481 
18474 0 5 21.4434 2.23502 18.7407 
26014 0 5 20.0806 5.39602 18.3431 
10660 0 5 19.6066 1.86453 20.0144 
19649 0 5 20.3492 3.60628 19.7493 
21421 0 5 17.7111 1.41679 20.9455 
11932 0 5 21.2061 2.06644 20.8785 
18516 0 5 17.1331 3.30593 20.9002 
2309 0 5 20.292 2.5284 23.1333 
1940 0 5 18.8599 1.98595 23.4673 
12022 0 5 20.1298 1.33855 25.9704 
5586 0 5 17.4624 4.98122 24.6139 
10234 0 5 17.4473 3.30203 26.1666 
20009 0 5 20.2876 3.37905 26.4901 
3586 0 5 21.3715 2.38614 28.8685 
18338 0 5 21.5573 3.37404 29.423 
11581 0 5 19.5177 5.4048 30.3407 
3121 0 5 18.8833 3.02516 32.0226 
26414 0 5 22.1092 5.617 31.9572 
13497 0 5 21.404 9.24461 3.14226 
21716 0 5 18.1893 6.26899 9.32792 
16507 0 5 17.2465 8.48539 11.3972 
21540 0 5 21.4512 8.52763 11.1129 
1175 0 5 19.2897 10.3888 10.1844 
23686 0 5 17.6273 11.5484 11.6337 
20938 0 5 19.3434 9.98578 13.168 
23427 0 5 17.4808 7.13397 13.8467 
10502 0 5 18.9519 10.8623 13.4146 
7694 0 5 18.3546 8.33906 18.1705 
14277 0 5 17.4317 10.9556 18.6084 
7669 0 5 19.5566 6.41387 22.0963 
2886 0 5 17.4673 10.2616 21.3707 
9038 0 5 21.0226 7.60162 22.4982 
7519 0 5 20.0793 11.3943 23.5964 
2870 0 5 19.1489 9.80193 25.6101 
579 0 5 19.9772 8.7182 29.0547 
234 0 5 18.2917 11.4605 29.7617 
20862 0 5 21.0106 10.3467 31.0509 
23305 0 5 18.3145 11.7443 1.99305 
12156 0 5 19.9168 13.1936 4.20961 
22749 0 5 19.7614 16.024 2.68699 
785 0 5 18.9817 16.182 7.56029 
16906 0 5 22.0407 11.958 9.409 
15823 0 5 20.5635 13.8383 8.04846 
23955 0 5 21.2297 12.3685 10.9481 
20944 0 5 20.9087 13.0662 11.6214 
2353 0 5 22.1522 13.5497 13.3297 
16558 0 5 22.4034 14.8316 11.954 
2934 0 5 17.0802 12.2643 15.5136 
6949 0 5 20.0155 11.9236 16.4272 
6198 0 5 21.8154 11.8179 15.3991 
949 0 5 17.0713 16.6354 15.9358 
14322 0 5 18.1952 13.2725 19.0204 
9848 0 5 19.2525 12.2156 21.6665 
21772 0 5 17.2178 12.863 23.3012 
8919 0 5 22.4118 16.6407 24.3612 
5737 0 5 17.5915 13.366 26.3291 
3774 0 5 21.9012 11.7094 26.476 
22069 0 5 20.7989 11.7136 30.5535 
343 0 5 20.0931 14.1525 29.6646 
7292 0 5 19.5782 16.5733 29.6519 
6094 0 5 22.2696 16.1598 30.3518 
26395 0 5 21.778 15.1977 30.4191 
5606 0 5 19.0593 14.8011 32.3412 
6065 0 5 22.1353 13.7685 31.4787 
1639 0 5 18.5717 15.9182 32.3544 
9545 0 5 22.2323 15.9915 33.1597 
994 0 5 20.1548 17.1962 0.903098 
22522 0 5 20.4635 19.4928 0.898074 
16962 0 5 22.2522 21.1226 1.0381 
4790 0 5 18.7616 18.5674 4.02639 
26567 0 5 20.6774 18.6641 3.11953 
10581 0 5 21.3486 19.1988 3.98346 
24983 0 5 19.9555 22.4199 3.51524 
24333 0 5 20.968 21.0682 4.40356 
20795 0 5 20.8512 20.5992 7.65748 
2286 0 5 17.886 20.6454 7.64352 
2893 0 5 22.3406 22.2672 7.66809 
16301 0 5 18.1549 21.7398 10.684 
21780 0 5 17.094 22.2281 10.2468 
18044 0 5 20.9124 20.6196 10.2185 
4329 0 5 20.7966 17.0095 11.7089 
1674 0 5 18.9298 19.2988 13.3042 
13820 0 5 20.8427 21.9477 12.3105 
17566 0 5 18.0417 18.1172 14.7392 
9916 0 5 18.9925 18.2862 13.7941 
4618 0 5 21.2585 20.0011 14.7523 
411 0 5 18.3973 20.9945 14.8709 
13591 0 5 19.0652 20.756 17.1422 
10295 0 5 20.9877 18.0782 19.8955 
19813 0 5 18.5362 20.3029 20.406 
8645 0 5 20.0914 20.5256 19.0051 
4316 0 5 22.2212 20.2495 18.8168 
21494 0 5 19.2235 18.6584 21.3015 
12024 0 5 19.0524 17.0139 21.4318 
8633 0 5 17.9357 20.5333 23.1088 
344 0 5 19.0451 17.3727 27.4133 
19840 0 5 18.9108 21.6491 27.7438 
8556 0 5 20.7524 21.5539 28.1494 
5311 0 5 18.0544 21.5999 32.4991 
7800 0 5 18.5312 24.8688 1.47225 
8382 0 5 22.3267 24.0341 3.06285 
18448 0 5 18.0106 26.0071 3.79195 
12654 0 5 20.6269 27.7112 3.7159 
15683 0 5 20.9376 27.1084 2.56844 
24030 0 5 18.9994 23.1411 5.16189 
20685 0 5 20.9182 23.1501 5.17993 
15458 0 5 21.7327 22.4388 9.38984 
16905 0 5 18.8857 25.2794 8.41424 
23128 0 5 21.1941 26.5965 11.1932 
10046 0 5 17.769 25.2363 12.4317 
20918 0 5 19.6289 25.8484 11.6966 
23168 0 5 20.659 26.0602 14.8861 
13517 0 5 22.3738 27.1786 14.9582 
2200 0 5 21.3304 25.2621 15.3555 
21400 0 5 18.4889 26.4904 16.3453 
23695 0 5 20.3618 23.8252 18.64 
13706 0 5 17.7644 22.8367 18.9117 
16529 0 5 18.0443 23.1444 19.832 
8839 0 5 18.5649 25.9248 21.1878 
19993 0 5 18.0482 23.7328 23.5097 
24172 0 5 20.3121 24.3482 23.9667 
8070 0 5 17.287 23.7582 26.6931 
25504 0 5 17.4466 24.9999 26.732 
5522 0 5 17.3031 23.1631 28.5944 
11010 0 5 18.8019 26.9087 29.1268 
8572 0 5 21.5926 26.0606 30.9034 
20965 0 5 20.2798 24.702 32.4829 
11073 0 5 22.298 29.2762 4.21382 
147 0 5 20.3995 29.708 3.51416 
12173 0 5 18.4324 29.3039 4.7801 
6296 0 5 22.4104 29.125 7.93326 
23107 0 5 17.7659 29.8217 7.38215 
7638 0 5 20.0102 31.6071 9.29347 
22706 0 5 18.9612 28.5241 11.0267 
25643 0 5 18.6428 32.5826 10.5067 
6109 0 5 21.966 28.3468 12.1082 
407 0 5 18.4217 30.5748 11.64 
18471 0 5 20.2571 29.7771 11.5944 
10568 0 5 17.6216 31.9267 12.2958 
2173 0 5 20.3366 31.3668 14.3721 
12575 0 5 20.3298 28.7826 16.0017 
7684 0 5 21.9493 30.2999 15.2677 
19127 0 5 17.4374 32.0705 17.1767 
9298 0 5 19.5255 31.1636 18.8245 
3908 0 5 22.365 31.072 20.4209 
4501 0 5 17.4381 28.7614 21.8447 
2857 0 5 19.9859 28.774 25.7276 
21534 0 5 17.108 33.0572 25.2667 
14858 0 5 18.9421 32.0074 24.2694 
25981 0 5 21.8414 31.9079 24.2677 
8024 0 5 17.925 28.5196 27.5082 
16694 0 5 17.993 31.9904 27.3383 
21696 0 5 21.3806 29.9424 28.4172 
11897 0 5 22.004 32.2538 28.5095 
4387 0 5 17.9624 29.69 31.2908 
11829 0 5 18.1994 32.2676 30.7062 
13483 0 5 18.6441 32.1924 31.7016 
24814 0 5 24.0767 1.89242 1.72993 
18744 0 5 24.0682 3.78843 1.68275 
25680 0 5 23.6623 2.01727 3.43873 
507 0 5 27.7383 3.29724 5.27632 
24245 0 5 26.4035 2.32005 11.3468 
14731 0 5 24.9332 4.31104 12.2913 
13084 0 5 25.2538 1.19203 16.6081 
13692 0 5 26.8464 0.928998 15.6319 
10785 0 5 23.4388 4.00265 16.811 
18512 0 5 22.5283 4.08521 15.451 
21492 0 5 24.8258 3.49975 16.9408 
20675 0 5 26.5373 5.80615 16.1944 
14086 0 5 27.7518 0.815916 17.6844 
19596 0 5 26.502 2.52895 17.0153 
699 0 5 22.9549 4.29471 18.775 
13386 0 5 23.5552 1.13602 20.2081 
509 0 5 24.77 2.15198 20.9898 
17380 0 5 27.1827 4.30064 20.9731 
2426 0 5 25.153 2.282 23.2891 
3982 0 5 27.7608 5.18974 22.4678 
5783 0 5 27.2553 3.22296 24.9621 
3336 0 5 25.4761 4.23485 30.9218 
18953 0 5 22.8067 3.16639 32.0208 
4248 0 5 25.364 2.63367 31.6016 
20523 0 5 25.2673 7.02497 8.49446 
21415 0 5 22.511 9.42906 8.34796 
26788 0 5 25.7292 11.4926 8.48426 
17661 0 5 25.6447 7.10979 10.8834 
14659 0 5 24.8776 10.11 13.0154 
8603 0 5 24.2288 8.376 13.5711 
20622 0 5 26.2716 10.3634 13.3953 
14826 0 5 22.422 7.31013 16.0888 
19316 0 5 22.544 6.31133 16.5755 
9805 0 5 25.3731 10.7901 16.9916 
26278 0 5 22.6315 6.78834 18.5091 
696 0 5 23.0452 8.87409 18.9342 
7028 0 5 26.2712 9.67976 22.1745 
3814 0 5 27.7754 8.80336 21.6865 
24509 0 5 24.4228 9.88751 24.0719 
17668 0 5 26.4367 11.5622 27.927 
6940 0 5 23.3067 6.89216 31.021 
20792 0 5 22.5739 10.9581 32.0315 
20925 0 5 24.8637 16.6237 3.90676 
11741 0 5 25.8292 13.0203 4.63868 
2939 0 5 27.6916 13.0662 5.40535 
26081 0 5 25.9431 14.6245 6.18803 
20701 0 5 27.3904 14.4928 7.81026 
25135 0 5 22.8591 16.9458 7.83295 
4013 0 5 26.4169 13.0378 8.72899 
7777 0 5 25.3215 15.4498 10.8654 
22713 0 5 24.7268 11.8422 12.5154 
10610 0 5 24.1201 13.4693 20.2975 
5422 0 5 23.7509 14.3437 19.8006 
22405 0 5 24.6434 15.2073 21.2716 
19827 0 5 23.7098 14.3512 24.8573 
8680 0 5 24.6015 14.8333 25.2145 
12907 0 5 22.5939 15.8887 24.9374 
3751 0 5 26.9816 16.8975 26.0425 
15978 0 5 25.4559 12.0977 28.0925 
17824 0 5 24.6559 14.3516 28.6671 
10616 0 5 23.3022 16.0796 30.1326 
8194 0 5 26.9755 15.0649 33.2421 
14004 0 5 23.0477 18.2888 2.09598 
9281 0 5 24.0184 20.819 2.32258 
15182 0 5 27.0705 21.2539 5.19304 
23164 0 5 22.4725 18.0582 6.88187 
9484 0 5 27.6619 20.169 6.68778 
10935 0 5 24.1703 18.1428 8.57004 
900 0 5 24.2865 20.4213 8.16343 
9827 0 5 25.1838 18.9304 12.6628 
26523 0 5 24.7368 20.2693 14.74 
21748 0 5 25.5076 22.3464 15.6698 
26532 0 5 26.4614 20.1278 21.9288 
530 0 5 27.0914 19.9816 26.0621 
11724 0 5 27.1385 17.5282 28.125 
7521 0 5 26.0546 19.3601 28.671 
9050 0 5 25.7855 20.0492 30.151 
5991 0 5 25.1323 21.1654 29.699 
10306 0 5 22.6476 19.4498 32.0464 
18619 0 5 23.6465 19.4442 32.3902 
8512 0 5 25.6676 24.4325 1.05825 
11018 0 5 25.7532 23.5069 3.93657 
24742 0 5 26.8888 23.8834 2.7061 
24909 0 5 24.3802 25.616 5.35709 
335 0 5 26.6854 27.0009 5.89804 
3278 0 5 26.2769 23.5925 7.69838 
19792 0 5 24.6327 26.2549 7.74515 
944 0 5 26.0282 26.4929 7.91653 
22673 0 5 25.1613 26.005 23.9987 
15120 0 5 26.4208 24.5735 26.4266 
22173 0 5 25.6003 26.7796 26.4362 
6589 0 5 22.5305 26.8143 27.9124 
21708 0 5 24.8716 24.1812 29.9664 
5537 0 5 26.3028 24.9307 30.5758 
10418 0 5 27.0313 25.663 33.0874 
5512 0 5 25.459 26.5618 32.811 
24738 0 5 24.8052 27.0264 31.9103 
4814 0 5 25.8965 28.0168 0.970706 
23417 0 5 24.0044 30.4115 1.81812 
21723 0 5 24.9625 28.8506 2.90358 
24608 0 5 22.7003 29.6108 5.72914 
16852 0 5 27.1862 28.2969 6.23655 
24922 0 5 23.0378 31.1016 7.59972 
7317 0 5 27.735 31.8773 7.71422 
19996 0 5 23.5526 28.43 8.61448 
25800 0 5 27.5664 28.323 9.37592 
8251 0 5 27.7964 30.8539 11.2587 
2399 0 5 27.6434 31.9219 10.7331 
1644 0 5 26.313 28.4609 13.0365 
5911 0 5 23.1762 32.0873 11.6757 
6304 0 5 24.0403 28.1432 15.1437 
17552 0 5 22.4315 30.4114 16.2416 
18842 0 5 25.6411 32.2768 16.7072 
16048 0 5 26.3195 32.3382 15.2661 
2646 0 5 23.9661 28.8075 17.1296 
12851 0 5 24.7984 30.5747 18.5311 
17269 0 5 24.442 32.6397 18.5804 
8845 0 5 25.341 27.8529 20.5087 
7263 0 5 23.0617 31.4204 19.4971 
19685 0 5 24.352 30.1941 19.7936 
17187 0 5 25.3793 31.4731 19.8705 
18463 0 5 22.788 28.9776 22.4141 
7077 0 5 27.7703 30.0975 20.9936 
20623 0 5 26.6023 31.5583 21.7352 
2942 0 5 22.4254 30.989 23.6903 
19849 0 5 23.5992 30.7758 24.5288 
1079 0 5 22.9004 28.8733 29.2341 
9047 0 5 26.1645 31.9654 29.7863 
2962 0 5 23.5585 32.6172 33.1748 
25890 0 5 29.2019 3.56255 1.10393 
23959 0 5 29.5262 1.16894 3.21705 
23406 0 5 31.4014 4.87971 3.54224 
18395 0 5 31.9706 5.84672 3.75765 
24603 0 5 30.0874 1.82718 4.9432 
13950 0 5 32.8661 1.68606 7.26273 
7805 0 5 32.3587 1.01966 7.96677 
4091 0 5 28.3588 3.41185 11.2853 
10019 0 5 32.059 4.08636 10.1667 
15578 0 5 29.722 2.43475 11.9548 
5683 0 5 32.3654 2.03325 12.3588 
16930 0 5 32.0444 2.40458 13.9766 
26894 0 5 31.4438 5.52087 14.5547 
5038 0 5 30.5578 1.53448 15.4114 
4210 0 5 32.4362 4.41856 17.4394 
2727 0 5 28.0459 2.35114 19.2333 
15889 0 5 30.5864 2.66351 18.9172 
18843 0 5 29.143 5.91333 19.1457 
19910 0 5 30.9471 0.897662 21.0204 
23713 0 5 28.5017 4.89859 21.5506 
22095 0 5 31.6932 1.81926 24.0348 
25899 0 5 31.3593 1.31409 25.1804 
15476 0 5 33.104 4.85144 25.5918 
24056 0 5 30.6265 3.09535 26.5423 
14560 0 5 30.9053 5.16566 28.4748 
17303 0 5 28.2395 2.52866 30.0082 
14027 0 5 31.03 3.41168 29.7131 
4300 0 5 32.8225 5.98164 31.4108 
1777 0 5 32.8857 5.0817 32.9973 
3026 0 5 31.9244 6.31262 1.25638 
21869 0 5 29.9135 8.62835 0.862975 
20338 0 5 30.4402 8.06441 3.27604 
8389 0 5 31.9838 8.25036 3.65213 
2220 0 5 29.9077 11.1439 3.50751 
23725 0 5 32.8453 7.08708 4.64015 
20403 0 5 28.7575 11.506 4.84698 
25577 0 5 28.8823 6.37488 6.91783 
22 0 5 30.094 7.88045 7.36162 
21107 0 5 28.5767 8.45939 9.91532 
6220 0 5 30.9195 10.3917 10.2353 
17578 0 5 31.4375 8.12256 11.9043 
6563 0 5 32.9168 9.59776 11.9565 
23803 0 5 27.9149 8.33702 16.7362 
3045 0 5 31.2711 7.51499 17.8223 
17239 0 5 32.3594 10.7693 18.7883 
24336 0 5 29.6419 7.34325 20.5214 
25316 0 5 32.0487 6.66306 21.2407 
4601 0 5 31.811 10.0456 21.2549 
16536 0 5 33.0597 7.5186 22.8117 
17901 0 5 28.2144 10.017 23.8891 
6982 0 5 31.9021 6.30776 29.7834 
9888 0 5 31.1124 11.6813 0.908417 
23542 0 5 28.6047 15.6602 1.96758 
13690 0 5 32.3971 16.1424 2.41489 
2227 0 5 30.6069 13.5272 5.15747 
11548 0 5 32.0845 16.0611 4.38996 
4182 0 5 32.7403 13.4186 6.31943 
25009 0 5 29.6094 12.5836 9.55904 
15467 0 5 32.5906 13.6314 9.13981 
26897 0 5 32.3648 15.5006 8.97576 
9478 0 5 29.1463 13.9435 10.7947 
11478 0 5 30.3722 15.1376 10.0939 
11908 0 5 32.794 16.803 11.2496 
11288 0 5 28.3632 11.8386 11.7622 
6976 0 5 30.796 13.2894 12.8729 
3988 0 5 29.4554 15.1734 14.6542 
10399 0 5 31.2366 15.5524 13.7979 
13529 0 5 32.7793 14.5371 15.8265 
26257 0 5 28.9666 15.407 16.8159 
12503 0 5 30.2688 12.226 17.8899 
12660 0 5 28.4513 16.4562 17.4903 
17237 0 5 31.0129 16.7733 20.5324 
18857 0 5 30.6841 16.0171 27.6832 
11625 0 5 30.2491 15.508 26.7279 
13262 0 5 31.9141 13.0037 31.3846 
20300 0 5 28.5613 14.8765 32.364 
20687 0 5 32.8179 18.6054 4.34977 
12832 0 5 31.0339 21.884 2.86469 
18037 0 5 28.0521 22.2819 4.5028 
10673 0 5 29.4682 17.5737 7.82772 
8330 0 5 33.1942 20.5504 7.75775 
10598 0 5 31.981 17.3285 9.68057 
12653 0 5 31.6048 18.6299 11.0731 
18519 0 5 28.4001 18.9095 13.0323 