950
Atoms. Timestep: 0
H 1.410770 1.517300 18.070500
H 1.426140 1.532950 18.073200
H 1.923500 2.336040 18.329000
H 1.938920 2.351160 18.333300
H 2.347360 1.446170 18.452500
H 2.335390 1.431780 18.441800
H 2.848120 2.250530 18.700300
H 2.860140 2.264370 18.712600
H 0.792125 2.574670 17.882900
H 1.530470 3.256150 18.214100
H 1.511620 3.240300 18.216300
H 2.451840 3.421330 18.610100
H 2.467830 3.435950 18.615200
H 0.811997 2.591370 17.876900
H 3.260010 1.346270 18.813000
H 3.268580 1.359380 18.831800
H 4.003200 2.290740 19.190800
H 3.995100 2.278440 19.168900
H 4.184630 1.260750 19.184300
H 4.189800 1.272600 19.211100
H 3.372910 3.082580 18.972700
H 3.360850 3.069270 18.958800
H 6.061080 7.650970 12.933500
H 6.069660 7.672350 12.927000
H 3.986860 8.480860 13.029100
H 3.995810 8.505950 12.994000
H 5.139310 8.028500 13.014500
H 5.131420 8.005550 13.033800
H 5.627740 8.177700 11.885300
H 4.691890 8.456510 12.229200
H 4.671880 8.431350 12.254400
H 5.603170 8.153650 11.897400
H 3.954780 7.928740 14.908500
H 3.974660 7.906970 14.945000
H 5.590970 7.579760 13.813300
H 5.586720 7.600490 13.799800
H 4.661310 7.934340 13.913600
H 4.656360 7.956630 13.887200
H 5.103780 7.528620 14.672500
H 5.120860 7.508550 14.693100
H 6.050510 7.153960 14.592800
H 6.034140 7.172470 14.585100
H 3.731660 8.288930 14.013900
H 3.726010 8.312780 13.974600
H 4.620840 7.456750 15.545200
H 4.650750 7.437340 15.572800
H 5.545700 7.023280 15.714300
H 5.578770 7.005860 15.729200
H 2.156710 13.116100 18.723400
H 2.627670 14.007600 18.488100
H 3.240070 14.797000 18.759500
H 1.953370 12.361500 19.402400
H 2.072150 11.945900 20.343100
H 2.613830 12.786300 20.361200
H 2.656110 13.371400 19.551300
H 3.197790 14.211800 19.569400
H 3.697200 14.467100 20.397300
H 3.155520 13.626700 20.379300
H 3.829810 15.272800 19.465000
H 4.238880 15.307500 20.415400
H 2.481220 11.980600 21.293500
H 3.070960 12.456400 21.999000
H 3.113240 13.041600 21.189100
H 3.683360 13.245800 22.270400
H 3.654920 13.882000 21.207200
H 4.154320 14.137300 22.035100
H 4.357660 14.891900 21.356200
H 1.822660 33.141100 18.183300
H 1.321810 32.337800 17.932300
H 1.309920 32.322300 17.924800
H 1.834590 33.156000 18.192400
H 2.226890 31.984400 18.289800
H 2.218940 31.970300 18.273500
H 3.164250 32.164200 18.690900
H 3.159160 32.151300 18.667300
H 2.747270 33.055600 18.554500
H 2.755810 33.069200 18.571700
H 3.882730 32.829000 19.028100
H 3.878650 32.816900 19.000700
H 2.249730 30.592500 27.602700
H 2.272900 30.607500 27.589300
H 1.645420 30.230900 26.892600
H 1.657940 30.251100 26.885900
H 1.059900 30.389300 27.719600
H 1.036320 30.368400 27.718400
H 3.219620 30.738100 27.407300
H 3.241010 30.748800 27.382200
H 2.585540 30.303800 26.429100
H 2.578380 30.287100 26.447300
H 3.594150 30.533500 26.471700
H 3.585190 30.522100 26.501900
H 4.396100 30.872800 27.041600
H 4.413500 30.878500 27.002200
H 1.919760 30.822800 28.499800
H 1.884150 30.808400 28.508100
H 0.951661 30.681500 28.706900
H 0.914267 30.662900 28.703400
H 1.311980 31.035300 29.583800
H 1.362230 31.049400 29.583200
H 2.534720 31.179200 29.203200
H 2.488460 31.170000 29.218100
H 2.854040 30.954000 28.312700
H 2.887860 30.964000 28.292700
H 3.855970 31.105200 28.085600
H 3.823920 31.099600 28.117300
H 3.502830 31.320500 28.996100
H 3.458350 31.315600 29.022700
H 4.824070 31.246500 27.878500
H 4.793810 31.245200 27.921900
H 4.715830 31.538700 28.865800
H 4.671760 31.539700 28.906900
H 2.181580 31.394500 30.113700
H 2.122880 31.386000 30.123500
H 3.190190 31.624100 30.156300
H 3.129700 31.620900 30.178000
H 4.062660 31.677200 29.732700
H 4.117790 31.676900 29.699600
H 9.126080 1.034880 13.374100
H 10.036200 1.044900 12.880800
H 8.847030 5.948910 20.564900
H 7.947630 4.738170 21.878500
H 8.164720 5.376550 21.092800
H 8.924290 4.934170 21.966500
H 9.374000 5.539540 21.309800
H 11.548000 6.055520 21.397900
H 10.877600 5.326180 22.142600
H 10.350700 5.735540 21.397800
H 9.900960 5.130170 22.054600
H 9.001560 3.919440 23.368100
H 8.253930 4.204830 22.711300
H 9.990180 3.958460 23.673000
H 10.954900 4.311440 23.544300
H 9.451260 4.524810 22.711400
H 10.427900 4.720810 22.799400
H 6.531190 7.722180 12.053800
H 6.552610 7.744220 12.054300
H 7.207280 7.252540 12.681600
H 7.218660 7.272230 12.691100
H 7.450280 6.870590 13.612700
H 6.520620 7.225170 13.713000
H 6.517080 7.244340 13.712300
H 7.447440 6.888190 13.624900
H 7.195080 6.678650 14.597500
H 7.177640 6.695020 14.605600
H 6.481550 6.744460 15.370300
H 6.510060 6.728170 15.372200
H 9.811740 6.301890 20.436200
H 10.800400 6.340910 20.741000
H 9.659380 27.320300 20.792400
H 9.496220 26.936500 21.724100
H 9.458430 26.924200 21.727600
H 9.693240 27.333500 20.788500
H 9.522330 27.017200 22.755900
H 9.486490 27.002800 22.759500
H 9.764570 27.553900 23.607500
H 9.736030 27.535100 23.611700
H 8.820520 29.764900 12.733200
H 8.073240 30.265100 13.246300
H 9.124450 30.716900 12.770100
H 8.558720 31.405200 13.224300
H 9.730680 29.774900 12.239900
H 10.559800 30.292500 11.898500
H 9.994110 30.980700 12.352800
H 11.085800 31.178800 11.800600
H 8.862650 32.357200 13.261200
H 9.428380 31.668900 12.807000
H 9.732310 32.620900 12.843900
H 11.167700 32.196500 11.972300
H 10.298000 31.932700 12.389600
H 10.783500 33.072800 12.367700
H 7.689060 31.141400 13.641700
H 7.770940 32.159100 13.813400
H 8.296920 33.045400 13.715400
H 10.035500 28.085100 20.204600
H 10.060600 28.101700 20.199700
H 10.499900 29.035500 20.115600
H 10.486000 29.013600 20.121600
H 10.893300 29.884400 20.558600
H 10.890100 29.856900 20.565700
H 10.011100 28.026300 21.435800
H 9.986230 28.008200 21.440500
H 10.399500 28.854800 21.105100
H 10.414400 28.877300 21.099300
H 10.313100 28.696000 22.088700
H 10.328900 28.719200 22.083000
H 10.726400 29.542600 21.753300
H 10.732300 29.570200 21.746600
H 9.925640 27.868200 22.419500
H 11.135600 30.421100 21.410100
H 11.139700 30.389200 21.417900
H 10.243500 28.561000 23.066800
H 10.226600 28.537300 23.072200
H 10.140200 28.378500 24.055800
H 10.158000 28.402900 24.050500
H 10.646800 29.412000 22.730300
H 10.639900 29.383900 22.736800
H 10.597300 29.336600 23.966400
H 10.590700 29.306900 23.972800
H 9.899780 27.849400 22.424100
H 10.966800 30.071700 23.385000
H 10.964700 30.104800 23.377600
H 11.167700 30.467800 22.449800
H 11.161700 30.501800 22.442000
H 11.854300 5.522180 22.230700
H 11.637200 4.883800 23.016300
H 15.911500 5.497280 26.699300
H 15.892900 5.514730 26.712200
H 15.303100 5.983270 27.422500
H 16.716900 5.520870 26.085500
H 16.741600 5.512820 26.080900
H 15.309700 5.958830 27.404100
H 16.623300 8.651930 1.924020
H 16.162400 9.419730 2.443600
H 16.723100 10.687800 3.885100
H 16.199000 10.164900 3.161400
H 15.772000 11.571800 16.417400
H 15.782500 11.571500 16.403500
H 16.298300 10.991600 17.088700
H 16.430300 10.685100 18.084900
H 15.574400 11.356200 18.619500
H 15.552900 11.367200 18.633300
H 16.451900 10.679900 18.064000
H 15.606000 11.498400 17.643400
H 15.622500 11.492000 17.629900
H 16.282400 10.993000 17.107600
H 16.202200 10.719900 19.067900
H 16.176100 10.730500 19.087500
H 15.616000 11.100900 19.831500
H 15.587900 11.117100 19.846700
H 16.373700 7.929360 27.681100
H 16.356600 7.916040 27.674900
H 16.767300 7.286250 27.024100
H 16.763700 7.277790 27.021400
H 16.330100 6.400490 26.868200
H 16.337600 6.387530 26.860400
H 15.930600 7.025790 27.513800
H 15.936500 7.043600 27.525100
H 15.097400 6.773790 28.006300
H 15.105700 6.800940 28.026000
H 15.353500 7.748650 28.361100
H 15.331700 7.723800 28.344600
H 15.949600 8.554300 28.328400
H 15.980100 8.572470 28.338000
H 16.785700 9.042760 27.962000
H 16.817600 9.051640 27.962800
H 14.611300 16.743200 8.053120
H 14.619100 16.730400 8.077270
H 14.612600 16.748300 8.073480
H 14.604500 16.750600 8.084080
H 15.187000 16.338600 8.834220
H 15.204700 16.344500 8.820660
H 15.199600 16.338600 8.802820
H 15.204100 16.325700 8.829510
H 14.684900 16.894900 9.800280
H 14.685400 16.904000 9.797020
H 14.680900 16.903500 9.776370
H 14.668400 16.902600 9.808300
H 15.444400 16.258300 9.805560
H 15.446000 16.247100 9.833080
H 15.452100 16.262500 9.822610
H 15.427300 16.252000 9.837530
H 15.288700 16.524300 10.810800
H 15.280000 16.515700 10.819100
H 15.280000 16.523800 10.792700
H 15.260800 16.514100 10.825200
H 14.271300 12.890500 16.511600
H 14.277200 12.884000 16.510600
H 15.042800 12.264100 16.191900
H 15.035900 12.266300 16.199300
H 13.441300 13.305000 18.278100
H 13.428800 13.322500 18.273400
H 14.318900 12.628700 17.722600
H 14.306300 12.640500 17.725000
H 14.253200 12.509200 18.714900
H 14.270800 12.492900 18.712200
H 14.946600 11.992500 18.171000
H 14.929600 12.003800 18.179100
H 13.683100 13.277100 17.270800
H 13.691100 13.265000 17.274200
H 14.982700 12.135100 17.189200
H 14.994700 12.128300 17.181500
H 13.576700 13.014600 19.250700
H 13.594900 12.993300 19.253400
H 14.087100 12.435900 19.940900
H 14.110700 12.413500 19.938600
H 14.898600 11.856600 19.160600
H 14.876400 11.872600 19.169100
H 14.850500 11.720800 20.150200
H 14.823300 11.741300 20.159000
H 13.834700 17.365800 7.781260
H 13.835700 17.377600 7.788110
H 13.837100 17.363600 7.757340
H 13.847800 17.352800 7.777910
H 13.086600 18.051700 8.025620
H 13.079200 18.031300 8.022310
H 13.096900 18.026000 8.011650
H 13.084400 18.033600 7.994730
H 12.558100 18.592300 8.732960
H 12.554900 18.573700 8.701690
H 12.548600 18.566800 8.732030
H 12.567500 18.569800 8.715860
H 13.162600 18.190500 9.734660
H 13.150600 18.203800 9.749840
H 13.154000 18.194000 9.717980
H 13.151900 18.187000 9.745850
H 13.500900 17.791200 8.870960
H 13.510300 17.784400 8.889560
H 13.498000 17.802500 8.902350
H 13.498900 17.788400 8.896870
H 14.257000 17.151900 8.931580
H 14.264400 17.146000 8.900150
H 14.265700 17.146900 8.922460
H 14.271400 17.136600 8.922370
H 13.923700 17.542700 9.767470
H 13.918700 17.545500 9.771440
H 13.917500 17.548800 9.747180
H 12.401500 18.838300 9.701850
H 12.385200 18.828500 9.720270
H 12.390500 18.839200 9.688790
H 12.391600 18.854300 9.720610
H 13.223600 18.354300 11.441200
H 13.228400 18.355100 11.457700
H 12.635300 18.758900 10.691500
H 12.632700 18.746500 10.722200
H 12.631900 18.767800 10.723900
H 12.643400 18.759800 10.705400
H 13.224700 18.342700 11.469400
H 13.214500 18.355800 11.474100
H 13.576100 17.948900 10.612600
H 13.570500 17.951500 10.594200
H 13.571700 17.944100 10.620400
H 13.562000 17.954500 10.626600
H 13.909500 17.553200 9.779070
H 14.338400 17.302600 10.646000
H 14.337200 17.301100 10.645400
H 14.320900 17.303900 10.655800
H 14.334000 17.306300 10.623400
H 14.750600 17.059500 11.523300
H 14.750600 17.063900 11.499600
H 14.758200 17.059700 11.520600
H 14.732300 17.054600 11.532500
H 13.997900 17.733900 11.737000
H 13.999700 17.732700 11.757000
H 14.002700 17.725300 11.761600
H 13.983300 17.728700 11.770000
H 16.939600 17.616000 26.069000
H 16.934700 17.593900 26.074400
H 15.088300 31.238700 6.045050
H 16.213300 30.719500 6.018150
H 15.502100 30.624600 5.321570
H 16.297000 30.061300 4.971390
H 16.756700 31.371700 7.527920
H 16.045500 31.276800 6.831340
H 16.924500 30.814400 6.714720
H 15.166500 31.739200 6.947960
H 15.715800 31.991900 7.788380
H 16.588900 31.929100 8.341110
H 16.998900 30.448400 25.735400
H 16.971600 30.456100 25.729300
H 16.067900 30.044700 25.940600
H 16.038500 30.059400 25.938500
H 16.069400 30.041600 25.924800
H 14.879300 29.997900 27.531700
H 14.873500 29.987200 27.543900
H 14.859600 29.992600 27.552900
H 15.747800 30.449700 27.600800
H 16.654800 30.913800 27.626800
H 15.265400 29.889700 26.606000
H 15.291700 29.881400 26.589300
H 15.289900 29.875900 26.602600
H 15.964600 30.398600 27.123900
H 15.973300 30.397600 27.108000
H 16.829400 30.674600 26.671600
H 16.819000 30.684800 26.690300
H 16.337200 30.483100 26.793700
H 16.639200 30.921200 27.645200
H 16.635900 30.906800 27.648800
H 14.942700 30.359800 28.499600
H 14.929800 30.340500 28.525500
H 14.930300 30.348700 28.512400
H 15.784700 30.635000 28.078800
H 15.798700 30.636800 28.063200
H 16.046500 30.873400 28.456000
H 16.459400 31.157600 28.600100
H 16.480300 31.152900 28.582000
H 16.934700 31.330600 28.504000
H 15.457100 30.840100 29.263200
H 15.464800 30.870100 29.233700
H 15.444900 30.863700 29.248500
H 16.305700 31.392100 29.537200
H 16.279500 31.394000 29.555000
H 16.300300 31.357600 29.568300
H 17.577700 6.001270 25.714500
H 17.554500 6.000040 25.710300
H 18.443000 7.822300 1.946020
H 17.458000 8.067230 1.741900
H 17.738400 8.701250 2.462650
H 19.314300 7.982760 2.481700
H 18.018700 9.335260 3.183400
H 17.090600 9.377500 2.813500
H 18.666500 8.659010 2.832550
H 18.946800 9.293030 3.553300
H 19.838400 8.505620 3.205400
H 19.875000 9.250790 3.923200
H 18.299100 9.969280 3.904150
H 17.370900 10.011500 3.534250
H 17.594400 10.848200 4.420780
H 18.579400 10.603300 4.624900
H 19.414100 10.018600 4.442780
H 18.195600 6.831770 25.698300
H 18.181100 6.823850 25.687200
H 18.428900 7.771570 26.022300
H 18.429900 7.781780 26.036600
H 17.160900 6.643150 26.367200
H 17.170700 6.639530 26.368000
H 17.596800 7.529780 26.529000
H 17.598100 7.528910 26.523200
H 17.189800 8.168040 27.182500
H 17.204500 8.172020 27.180100
H 18.217700 8.596750 26.638800
H 18.231400 8.589240 26.625800
H 17.641700 9.057780 27.336100
H 17.615900 9.058290 27.343500
H 17.153000 16.986700 26.884100
H 17.840700 16.561400 27.509800
H 17.847800 16.542900 27.510400
H 19.843900 16.545400 27.635800
H 18.832700 16.381400 27.785500
H 18.881700 16.988900 26.992700
H 20.607300 16.999400 27.116400
H 18.823500 16.396200 27.790500
H 19.836100 16.556500 27.646400
H 20.610400 16.991000 27.101300
H 18.012100 18.554600 16.979000
H 18.787200 17.882600 16.839200
H 19.773400 17.690800 16.589200
H 19.674100 18.682700 16.508600
H 20.706400 18.030600 16.296000
H 17.813600 20.538200 16.817800
H 18.793500 19.114500 16.703500
H 18.694200 20.106300 16.622900
H 17.655700 19.526600 16.971200
H 20.356300 20.234400 16.152500
H 19.574900 19.674500 16.428000
H 20.455500 19.242600 16.233100
H 21.336200 18.810800 16.038200
H 21.494100 19.822400 15.884800
H 18.443400 21.318400 16.560000
H 19.376400 21.658100 16.266800
H 19.475600 20.666300 16.347400
H 20.362600 21.466300 16.016800
H 21.137700 20.794400 15.877000
H 18.098800 17.917000 25.750300
H 18.091000 17.899100 25.749100
H 17.262700 18.222900 25.294900
H 17.251100 18.201700 25.298400
H 18.033900 18.665800 24.764800
H 18.017700 18.647400 24.763900
H 18.979800 18.203900 25.407000
H 18.990700 18.218600 25.413200
H 19.819600 17.901200 25.857700
H 19.826900 17.912800 25.868600
H 20.029200 18.660900 24.901400
H 20.013800 18.649900 24.889300
H 20.708500 18.206000 25.515600
H 20.718800 18.214400 25.531500
H 19.046500 18.826100 24.620800
H 19.028900 18.811400 24.614100
H 18.043100 17.309500 26.542700
H 18.041900 17.291600 26.541900
H 17.151200 17.007900 26.879700
H 18.935000 17.611200 26.205600
H 18.930800 17.596400 26.199800
H 19.770600 17.293700 26.650500
H 19.771100 17.305300 26.661000
H 18.879200 17.003700 26.998000
H 20.930400 17.606300 26.342200
H 20.926900 17.598900 26.325200
H 22.243700 23.480400 10.057700
H 22.233500 23.490900 10.043300
H 22.260200 23.495800 10.055700
H 22.246300 23.498500 10.058300
H 22.246500 23.519300 10.067100
H 22.262200 24.399600 10.567700
H 22.275600 24.402100 10.556000
H 22.262800 24.387900 10.555500
H 22.277900 24.426400 10.565200
H 22.253000 24.390100 10.556100
H 18.766300 25.885300 22.339100
H 20.493900 25.982000 22.417900
H 18.606700 27.548300 20.852800
H 17.885100 26.959600 21.304900
H 17.901700 26.982400 21.312500
H 17.629500 26.196200 21.955900
H 17.636200 26.217300 21.957500
H 18.754700 26.633700 21.675900
H 18.634400 26.258400 22.001600
H 18.631000 27.564500 20.864000
H 20.130000 26.973100 21.499100
H 19.131800 26.932000 21.454900
H 19.612700 27.056300 21.383700
H 19.624300 26.307900 22.046900
H 20.482300 26.730400 21.754700
H 20.601600 27.660000 20.943700
H 19.632600 26.299500 22.045800
H 19.601000 27.804700 20.720500
H 19.628700 27.807600 20.732200
H 21.629000 26.381600 22.134100
H 20.627400 27.646700 20.952300
H 21.619200 26.419500 22.137900
H 21.359600 27.124700 21.465500
H 21.340300 27.153000 21.462500
H 20.630800 26.340500 22.090000
H 18.637800 24.952300 23.139300
H 18.647100 24.955800 23.150100
H 17.908400 25.462800 22.631300
H 17.905700 25.474200 22.626100
H 19.135200 25.625900 22.592500
H 19.636600 24.791300 23.359400
H 19.647600 24.811100 23.373300
H 20.133400 25.666900 22.636700
H 19.636000 25.559500 22.710100
H 20.634200 25.034400 23.227600
H 20.641900 25.067400 23.241000
H 21.363500 25.616500 22.779100
H 21.363600 25.656200 22.788800
H 18.133200 29.636900 5.641070
H 17.092300 30.257100 5.901530
H 17.260100 29.699800 5.088330
H 17.803500 30.352000 6.598110
H 17.635700 30.909300 7.411300
H 18.760700 30.390100 7.384400
H 18.682500 29.889600 6.481490
H 18.346900 31.004300 8.107880
H 17.552000 31.567600 8.458060
H 17.844900 30.957400 26.019900
H 17.814800 30.973600 26.034500
H 17.003900 30.435400 25.716400
H 17.524100 31.364000 27.696800
H 17.225300 30.940200 26.841600
H 17.510900 31.190800 27.190400
H 17.833500 30.978800 26.041900
H 17.493700 31.207400 27.211600
H 18.430300 31.829600 27.721900
H 18.412200 31.821100 27.744800
H 18.342100 31.473200 26.772200
H 18.348100 31.493700 26.778000
H 18.367000 31.467700 26.754000
H 18.404900 31.855200 27.746500
H 17.336400 31.429900 28.145600
H 17.313800 31.443900 28.166500
H 17.988500 31.966500 28.687800
H 18.006400 31.923900 28.691700
H 18.017900 31.946100 28.664400
H 17.233400 31.754300 29.359100
H 17.210500 31.797700 29.349800
H 17.240200 31.786000 29.328800
H 22.818100 1.968320 21.933800
H 22.836200 1.989890 21.938700
H 23.487700 1.425790 21.360000
H 23.508900 1.448230 21.367800
H 24.056400 1.960630 21.985000
H 24.074300 1.983530 21.995300
H 25.501700 1.293780 21.297600
H 25.070700 1.906310 21.960200
H 25.052600 1.882310 21.945700
H 25.480000 1.269160 21.281300
H 24.484500 1.193430 21.133100
H 24.462000 1.169880 21.121200
H 26.287900 1.722390 21.817200
H 26.269000 1.697020 21.797500
H 24.639700 2.518840 22.622900
H 24.625100 2.495470 22.610000
H 25.621200 2.417150 22.570600
H 25.636100 2.441620 22.587800
H 26.617400 2.338830 22.531300
H 26.632500 2.364400 22.552700
H 22.646800 2.673280 22.693000
H 22.632700 2.652100 22.688700
H 23.628900 2.573780 22.649300
H 23.643200 2.596060 22.657900
H 22.991400 3.315300 23.428500
H 22.981100 3.293910 23.422500
H 23.770100 3.721770 23.938700
H 23.777600 3.743900 23.948100
H 24.197600 3.108620 23.274300
H 24.208600 3.131370 23.285500
H 25.205100 3.054150 23.250400
H 25.193700 3.030300 23.235000
H 25.770500 3.589450 23.878000
H 25.762400 3.565140 23.860000
H 24.794800 3.844250 24.112600
H 24.788100 3.821050 24.098800
H 26.443100 3.047790 23.307000
H 26.432000 3.022610 23.286200
H 25.385200 1.380120 28.788700
H 25.406900 1.390420 28.751500
H 26.150600 1.479360 29.424400
H 26.166400 1.492250 29.394000
H 26.214200 1.533840 28.187900
H 26.241500 1.541820 28.157900
H 27.231400 1.699550 28.088900
H 27.259600 1.707230 28.067700
H 27.073800 1.639070 29.074600
H 27.092800 1.650660 29.052100
H 24.979300 1.293590 29.689300
H 24.966300 1.279580 29.730100
H 25.069900 1.259160 30.760000
H 25.999600 1.435690 30.378400
H 25.993000 1.418880 30.410100
H 25.073300 1.277280 30.720200
H 27.839200 1.738310 29.710300
H 26.916100 1.578600 30.060200
H 26.925900 1.594090 30.036500
H 27.681600 1.677840 30.696000
H 27.685500 1.695930 30.679000
H 26.759100 1.537520 31.020900
H 26.758500 1.518120 31.045900
H 25.668200 1.324340 31.602400
H 25.663700 1.345860 31.567900
H 26.600900 1.457640 32.031600
H 26.592300 1.480960 32.005200
H 27.618100 1.623360 31.932500
H 27.610400 1.646370 31.915000
H 27.676400 7.171570 14.687500
H 26.895000 6.545930 14.951700
H 26.930700 6.566120 14.926600
H 27.716300 7.194350 14.681500
H 25.545800 6.514060 16.427800
H 25.560600 6.516850 16.382900
H 26.141700 6.318130 15.549400
H 26.115100 6.305260 15.588700
H 26.223300 7.248370 16.385400
H 26.897900 7.264300 15.647400
H 26.924300 7.275680 15.631300
H 26.239200 7.251050 16.359400
H 26.900800 7.982680 16.343100
H 26.917800 7.985250 16.335900
H 27.575400 7.998620 15.605000
H 27.602800 8.009880 15.607800
H 27.596300 8.719450 16.312500
H 27.578400 8.716990 16.300700
H 25.339600 7.116370 17.244200
H 25.343200 7.109030 17.203800
H 25.551700 7.950800 17.819200
H 25.547700 7.935990 17.792100
H 26.232700 7.960620 17.064000
H 26.226300 7.966740 17.081100
H 26.125300 8.793780 17.998600
H 26.119200 8.776150 17.990300
H 26.903800 8.701050 17.038700
H 26.911300 8.694820 17.040600
H 26.906700 9.419430 17.734400
H 26.904800 9.404390 17.745200
H 27.693800 9.652370 17.122500
H 27.686600 9.660090 17.097400
H 25.728000 8.433740 29.628900
H 25.769200 8.435620 29.647400
H 23.795000 8.276000 29.925600
H 23.754400 8.290500 29.919700
H 23.012100 8.938980 30.236600
H 23.045900 8.917350 30.240800
H 23.853200 9.479730 30.254400
H 23.882600 9.464420 30.266100
H 24.791800 8.099680 29.708400
H 24.748500 8.105570 29.697300
H 24.721300 9.063030 29.984700
H 24.755600 9.055580 29.999900
H 25.592300 9.602650 30.025200
H 25.562400 9.603780 30.002400
H 26.430500 9.187070 29.732800
H 26.465200 9.193810 29.759000
H 22.745200 9.851870 30.569600
H 22.720600 9.877240 30.563000
H 23.846400 10.420300 30.557700
H 23.826000 10.437200 30.541800
H 22.973500 10.829200 30.823900
H 22.957900 10.853900 30.811400
H 24.719400 10.011500 30.291400
H 24.694200 10.020500 30.272100
H 25.535200 10.561200 30.289800
H 25.556100 10.558600 30.316700
H 24.683100 10.967400 30.583000
H 24.667100 10.977900 30.559500
H 26.693500 10.171100 30.013300
H 26.667800 10.163700 29.981200
H 26.392800 11.105600 30.342100
H 26.376200 11.102000 30.307600
H 27.836900 16.790300 13.011300
H 27.839100 16.788000 13.051000
H 25.575700 13.766700 21.961000
H 25.555200 13.754100 21.953100
H 25.573900 13.784400 21.925000
H 25.949800 14.400600 21.182900
H 25.944600 14.351000 21.202000
H 25.953100 14.374700 21.212800
H 26.014500 14.538000 22.412900
H 27.356100 16.737300 21.883500
H 26.981000 16.089800 21.168100
H 27.366900 16.705400 21.860900
H 26.990600 16.054800 21.148900
H 26.970800 16.120200 21.155000
H 26.909500 15.985900 22.383600
H 26.898700 16.027200 22.388800
H 27.342300 16.762800 21.876800
H 26.910200 16.008200 22.402700
H 26.458100 15.273600 21.900900
H 26.461100 15.229800 21.907000
H 26.461100 15.255600 20.901000
H 26.465900 15.252000 21.922300
H 26.470000 15.193100 20.907700
H 26.467500 15.225000 20.922600
H 25.434200 13.572000 22.928600
H 25.406100 13.562600 22.959500
H 25.436400 13.563900 22.966700
H 25.572600 13.820700 23.960300
H 25.567900 13.820300 23.924700
H 25.537300 13.827500 23.951700
H 26.011500 14.555900 23.412700
H 25.994700 14.547000 23.429000
H 26.018400 14.549900 23.441100
H 26.003600 14.510300 22.429700
H 26.020000 14.522800 22.441500
H 27.498100 16.970300 22.853100
H 26.452100 15.266400 22.906300
H 26.464300 15.279000 22.921900
H 26.455100 15.291600 22.900800
H 26.443200 15.303100 23.905600
H 26.908600 16.035200 23.402400
H 26.900600 16.022600 23.382900
H 26.895700 16.045100 23.388600
H 26.452100 15.309500 23.900600
H 26.462800 15.306000 23.921600
H 27.336300 16.798700 23.876500
H 27.352900 16.791400 23.882900
H 27.349000 16.778700 23.859500
H 27.492200 16.994100 22.877200
H 25.947700 14.468200 24.675800
H 25.939500 14.462900 24.646500
H 25.913600 14.478100 24.663800
H 26.461200 15.333000 24.921300
H 26.449100 15.327500 24.900500
H 26.434200 15.339800 24.904900
H 26.975500 16.183400 24.631000
H 26.959600 16.181900 24.610600
H 26.960400 16.182500 24.618700
H 23.669600 11.587400 30.935500
H 23.660400 11.607200 30.915300
H 24.646900 11.923300 30.874500
H 24.639900 11.935400 30.846900
H 25.634000 11.750500 30.624500
H 25.643700 11.747000 30.657300
H 23.569000 22.420200 9.045710
H 23.573500 22.420300 9.014490
H 23.581400 22.398500 9.037610
H 23.605600 22.415900 9.043970
H 27.476100 17.011200 22.872900
H 22.747000 22.768800 9.502300
H 23.848700 23.274200 9.439840
H 23.413400 23.462900 9.665120
H 23.440800 23.466900 9.679760
H 22.716900 22.769900 9.479050
H 22.732700 22.776900 9.497430
H 22.726400 22.752200 9.502100
H 22.719100 22.785000 9.510960
H 23.426800 23.472700 9.681830
H 23.591000 22.428200 9.035400
H 23.423200 23.474500 9.680620
H 24.356100 23.357200 9.331120
H 24.341900 23.345900 9.312660
H 24.370200 23.348200 9.330380
H 24.591400 22.545800 8.796000
H 24.579600 22.514200 8.788670
H 24.347900 23.343400 9.323160
H 24.606000 22.531600 8.803540
H 25.465700 23.098300 8.843360
H 25.480000 23.084900 8.845450
H 25.453700 23.068100 8.821980
H 25.450000 23.085400 8.822360
H 25.449800 23.065000 8.828850
H 24.784900 23.609000 9.332020
H 25.993500 23.927700 9.158460
H 25.979600 23.937600 9.164800
H 25.967000 23.921800 9.146270
H 25.976700 23.901900 9.135350
H 25.969300 23.911800 9.128630
H 25.050200 24.053100 9.515520
H 25.064000 24.046300 9.507840
H 25.038500 24.038900 9.498720
H 24.573900 22.535800 8.774130
H 24.568500 22.522700 8.796040
H 25.052000 24.033000 9.492820
H 25.988300 24.819400 9.626440
H 26.008100 24.808900 9.633420
H 25.995500 24.838800 9.674190
H 25.986400 24.821000 9.659050
H 26.008900 24.834000 9.658700
H 25.052200 24.484600 9.734260
H 23.179900 23.815100 9.949880
H 24.116000 24.149900 9.842070
H 24.134500 24.164900 9.857210
H 24.110000 24.155900 9.851180
H 24.120900 24.168600 9.866230
H 24.127300 24.164100 9.850280
H 23.205100 24.283500 10.206600
H 23.202600 24.295200 10.207700
H 23.191500 24.284100 10.216900
H 23.181500 24.273000 10.203600
H 22.804800 25.263200 10.871700
H 22.789100 25.244900 10.869000
H 22.776100 25.238900 10.889100
H 22.770000 25.226500 10.880000
H 22.778400 25.231700 10.862200
H 23.447200 24.690800 10.352100
H 23.906700 24.984800 10.377400
H 23.898800 24.981600 10.384000
H 23.878000 24.966000 10.389700
H 23.885600 24.980000 10.401300
H 23.650400 25.791400 10.936500
H 23.646000 25.776100 10.928200
H 23.686100 25.805500 10.904500
H 23.663100 25.798200 10.910900
H 23.652400 25.785600 10.895500
H 24.685600 25.908000 10.654800
H 24.646400 25.891600 10.687900
H 24.650700 25.909100 10.697100
H 24.663400 25.913900 10.670500
H 24.650700 25.901200 10.646500
H 24.383400 25.025600 10.244300
H 24.828300 24.862900 10.034700
H 24.806500 24.848900 10.037300
H 24.831400 24.853700 10.019900
H 24.815000 24.864500 10.050600
H 25.509100 25.560400 10.235000
H 25.535500 25.543200 10.189600
H 25.503000 25.542000 10.223300
H 25.522000 25.561000 10.212100
H 25.505700 25.547600 10.182000
H 26.351600 23.967300 18.673500
H 26.355400 23.975500 18.673900
H 26.498800 24.744700 18.005900
H 26.512000 24.749800 18.004800
H 26.879500 25.695300 17.797600
H 26.861000 25.692200 17.798700
H 27.341100 26.555900 18.107500
H 27.359200 26.558600 18.108000
H 26.458700 23.568200 19.622800
H 26.451600 23.579900 19.625800
H 26.774800 23.668900 20.605300
H 26.791500 23.654500 20.599400
H 26.899900 25.062000 18.865200
H 26.905400 25.069300 18.866900
H 26.875200 24.484300 19.677400
H 26.879800 24.473800 19.673700
H 27.301000 25.379400 19.724500
H 27.298800 25.388700 19.729000
H 27.702100 25.696800 20.583800
H 27.268600 24.803700 20.539600
H 27.280900 24.791200 20.533000
H 27.692200 25.708100 20.591200
H 27.329000 25.973700 18.918500
H 27.321000 25.967600 18.916000
H 27.810400 27.104300 18.849700
H 27.822800 27.108500 18.852700
H 27.722100 26.285000 19.775400
H 27.722400 26.293100 19.780600
H 27.238400 24.218700 21.350100
H 27.260800 24.203000 21.341500
H 27.740900 25.066700 21.650400
H 27.718200 25.082000 21.660400
H 33.014200 1.602810 17.699300
H 33.033000 1.619730 17.693900
H 28.762300 1.898030 29.360500
H 28.778600 1.910900 29.352700
H 28.188200 1.842320 28.505000
H 28.164000 1.832860 28.518100
H 28.866000 1.877620 30.390400
H 28.872600 1.894590 30.383600
H 28.445000 1.797770 31.321500
H 28.447100 1.777080 31.331800
H 27.852300 1.752500 29.694600
H 28.250000 8.014550 14.866900
H 28.287900 8.034510 14.879700
H 28.274900 9.453650 16.289000
H 28.255900 9.451300 16.258300
H 28.462100 8.848990 15.441900
H 28.492300 8.861470 15.468100
H 31.787800 8.725300 24.188100
H 31.754100 7.755390 24.548700
H 31.723500 7.095820 25.346100
H 31.815600 9.745670 24.361100
H 31.744600 8.004720 25.762600
H 31.776700 8.819460 25.183700
H 31.797800 9.728360 25.600200
H 31.827100 10.903900 25.991600
H 31.830000 10.543100 25.021200
H 31.701300 7.284130 27.337100
H 31.704200 6.923330 26.366700
H 31.765600 8.913610 26.179200
H 31.733500 8.098870 26.758200
H 31.754600 9.007770 27.174700
H 31.807800 10.731400 27.012300
H 31.777200 10.071800 27.809700
H 31.786700 9.822510 26.595700
H 31.743500 9.101930 28.170200
H 31.715700 8.081560 27.997300
H 28.790800 15.092600 12.555000
H 28.783400 15.088200 12.582800
H 29.744900 14.723500 12.714000
H 29.738300 14.716600 12.730800
H 30.697100 14.831100 13.104200
H 30.699000 14.840600 13.098400
H 28.092400 15.849200 12.663800
H 28.920500 16.188700 13.136200
H 28.918800 16.193700 13.109200
H 28.088200 15.846400 12.700100
H 29.745500 15.623800 13.151600
H 29.745000 15.630900 13.134400
H 29.752800 16.530900 13.572400
H 29.745200 16.538300 13.554700
H 30.571400 15.975500 13.579800
H 30.577800 15.966000 13.587700
H 31.402900 15.401100 13.603000
H 31.397600 15.412600 13.604900
H 30.585100 16.873200 14.008500
H 30.571600 16.882900 14.000100
H 31.666500 16.273800 14.093700
H 31.653400 16.286300 14.098000
H 28.102700 17.660700 13.541700
H 28.092700 17.664000 13.504400
H 28.919000 17.101100 13.529500
H 28.927700 17.095800 13.557000
H 28.791300 18.236000 14.011000
H 28.808400 18.230700 14.040500
H 29.760000 17.438100 13.993100
H 29.745300 17.445700 13.975000
H 29.745500 18.353100 14.395300
H 29.767200 18.345200 14.413900
H 31.397900 17.227400 14.445600
H 31.417300 17.215400 14.444600
H 30.722200 17.973600 14.561900
H 30.699600 17.984000 14.554400
H 28.146000 27.197500 19.832300
H 28.143300 27.190600 19.826200
H 28.085600 26.027500 21.453300
H 28.103100 26.014200 21.443200
H 28.250400 26.791600 20.775500
H 28.242200 26.801800 20.784100
H 33.203700 33.113200 17.714600
H 33.219600 33.129600 17.714200
950
Atoms. Timestep: 50000
H 5.136710 5.965060 14.008600
H 5.892060 5.953390 13.026100
H 5.895520 5.948480 13.031900
H 6.049230 5.488790 13.897600