ITEM: TIMESTEP
0
ITEM: NUMBER OF ATOMS
950
ITEM: BOX BOUNDS pp pp pp
7.2066043876332486e-01 3.3279339561239894e+01
7.2066043876332486e-01 3.3279339561239894e+01
7.2066043876332486e-01 3.3279339561239894e+01
ITEM: ATOMS id mol type x y z 
6618 0 5 5.95498 4.02986 1.5331 
2710 0 5 3.18322 4.50916 1.16412 
19453 0 5 3.85792 5.57134 2.47922 
5469 0 5 3.2744 1.93757 3.97234 
8106 0 5 5.66076 5.04898 2.72968 
12960 0 5 3.13769 4.29082 5.26594 
6605 0 5 1.26965 2.35322 6.53428 
16277 0 5 5.11226 3.43149 6.4987 
10414 0 5 2.49041 3.59043 9.45548 
7842 0 5 5.28084 5.3388 8.95641 
23721 0 5 4.9548 1.70776 11.3257 
18900 0 5 4.50451 2.35493 10.573 
16438 0 5 1.72198 2.28807 12.8871 
25660 0 5 2.38654 3.65529 12.0222 
4256 0 5 5.97833 0.809018 15.1828 
6227 0 5 4.54949 4.95739 14.4716 
18319 0 5 5.01329 4.76217 20.846 
3762 0 5 4.32753 2.05338 24.0667 
19214 0 5 5.69293 2.90939 22.9191 
7002 0 5 4.53388 3.45809 22.5584 
22872 0 5 2.70566 1.38443 25.1498 
17484 0 5 1.93404 4.18214 24.5814 
13170 0 5 4.63638 2.94628 27.7188 
14918 0 5 1.64697 2.07621 27.9767 
22621 0 5 4.71702 1.23157 29.0584 
14856 0 5 4.54319 1.66688 28.0226 
18832 0 5 4.12525 3.16426 28.6244 
12972 0 5 2.96008 3.28217 29.1269 
23051 0 5 6.04307 3.61587 28.8527 
17095 0 5 3.44495 5.34263 27.8699 
22761 0 5 1.15253 1.79537 30.3829 
18973 0 5 1.71404 4.54015 31.2588 
409 0 5 3.32583 5.96427 30.1647 
10183 0 5 3.80555 1.35953 31.7068 
6050 0 5 3.89858 7.67568 2.40547 
5472 0 5 1.45823 7.04616 6.02403 
14061 0 5 2.58618 6.15307 4.58164 
21227 0 5 1.0781 8.17206 5.0875 
5526 0 5 4.17398 11.3986 4.722 
10229 0 5 5.021 10.4514 4.70126 
17902 0 5 5.347 7.43822 7.01191 
11709 0 5 2.94466 9.13352 8.6746 
93 0 5 2.9839 10.0145 9.18411 
23024 0 5 4.34179 10.5011 10.6211 
5099 0 5 6.06358 7.99653 17.2348 
5025 0 5 3.63585 11.3425 20.2553 
4356 0 5 1.1312 7.46944 22.1923 
6505 0 5 4.25895 6.76763 23.851 
10447 0 5 2.99224 6.51526 22.5339 
6785 0 5 5.20565 8.26665 22.8349 
22512 0 5 4.29777 11.0764 23.6552 
792 0 5 4.84301 6.67923 25.4839 
15692 0 5 4.09224 6.95535 26.5303 
4168 0 5 3.13013 8.04188 26.5776 
8091 0 5 3.42039 8.16816 27.8057 
17366 0 5 2.23772 9.77667 26.7487 
23848 0 5 1.67955 7.90638 27.9436 
23751 0 5 5.09436 6.47257 30.6581 
18097 0 5 1.90648 10.9343 30.3073 
15607 0 5 5.30253 11.3263 31.1039 
20953 0 5 5.33279 10.2422 31.4468 
13510 0 5 5.05843 6.70088 31.6613 
25667 0 5 1.66089 10.4478 32.0888 
7267 0 5 1.15168 13.3604 1.63422 
17812 0 5 0.86443 11.6293 1.19037 
22202 0 5 1.65781 14.5076 1.73893 
16271 0 5 5.90843 13.0912 3.22758 
1532 0 5 1.32397 14.6806 3.02567 
25127 0 5 2.76422 14.8126 4.29514 
22303 0 5 3.12381 16.2375 2.7755 
25260 0 5 3.68629 16.2946 3.73676 
4828 0 5 2.34246 15.0428 5.64121 
21783 0 5 3.34696 13.6773 4.37646 
22571 0 5 2.68761 16.7481 5.94842 
2964 0 5 3.74878 14.0933 7.54856 
4109 0 5 2.99192 13.9039 6.45755 
1718 0 5 5.08983 16.9792 7.25455 
22946 0 5 1.20027 15.2564 10.1071 
384 0 5 2.69132 12.2903 12.1283 
1086 0 5 1.11681 15.6917 12.9735 
2008 0 5 0.782555 12.7506 14.4006 
7968 0 5 3.53825 15.0865 18.2765 
5546 0 5 4.00222 12.1787 19.7148 
18794 0 5 1.28411 12.0222 26.8804 
22642 0 5 4.89091 14.2369 26.9463 
10838 0 5 0.815149 13.1258 29.0298 
4364 0 5 3.15294 11.9281 27.8796 
16847 0 5 3.01499 14.8832 28.0998 
59 0 5 2.16095 15.6865 31.2515 
14457 0 5 3.41148 16.4804 32.3839 
7342 0 5 5.1105 15.4915 32.7406 
1886 0 5 3.37132 17.7705 2.01042 
17101 0 5 1.3125 17.4447 4.14163 
18847 0 5 4.95772 18.8045 2.79436 
16715 0 5 1.57955 19.4263 3.08403 
16979 0 5 4.49046 18.6787 4.76421 
25676 0 5 6.06746 20.2637 5.49546 
10236 0 5 2.35877 21.9394 5.8237 
4489 0 5 2.4453 17.8841 6.54614 
16633 0 5 1.99819 19.554 6.7327 
21816 0 5 2.84962 18.8248 6.55921 
23892 0 5 2.80408 20.9636 7.36127 
4902 0 5 2.48597 18.7547 9.45269 
3067 0 5 5.65044 17.88 8.78898 
22094 0 5 2.30649 22.4006 8.8282 
17127 0 5 5.01945 20.7009 8.78294 
20773 0 5 2.31914 17.8275 10.6171 
15889 0 5 5.93761 17.7811 11.4637 
13733 0 5 1.54188 20.1499 13.8915 
17637 0 5 2.71654 19.8317 13.9671 
15430 0 5 1.81685 21.5444 19.6245 
436 0 5 5.41105 21.6062 19.4516 
4676 0 5 2.0746 21.6781 24.2128 
6896 0 5 5.95604 21.0129 23.2048 
1929 0 5 0.939282 21.5996 25.7503 
17345 0 5 1.23851 19.1502 30.7929 
22812 0 5 2.65646 21.0525 30.9886 
14906 0 5 1.23473 18.2268 32.1102 
10722 0 5 2.6424 17.2552 32.6463 
4928 0 5 5.12086 17.783 32.1265 
21035 0 5 5.95898 17.2009 32.5464 
24765 0 5 4.04373 22.5882 2.33368 
15490 0 5 4.69093 25.9782 2.14703 
21853 0 5 4.53599 23.1792 3.05178 
24845 0 5 3.34418 27.756 4.03258 
22022 0 5 6.05046 22.6858 4.63672 
7022 0 5 1.37105 23.7059 7.42518 
5110 0 5 3.97457 22.6135 7.32997 
7107 0 5 4.226 25.0334 7.65576 
4222 0 5 2.49463 24.9797 8.35329 
97 0 5 5.79441 23.2217 12.3801 
13564 0 5 6.1182 26.0393 12.8466 
26847 0 5 1.38828 26.2449 12.2401 
3368 0 5 1.58439 25.374 14.77 
12248 0 5 4.03834 24.6268 17.3909 
22846 0 5 4.44655 27.0535 18.2431 
18840 0 5 3.55466 24.1041 19.744 
6055 0 5 5.42702 23.6591 22.1249 
6248 0 5 4.93966 22.6933 21.4289 
21795 0 5 5.23769 23.0707 24.8424 
3914 0 5 4.77865 23.9098 27.0843 
9344 0 5 0.723208 22.802 28.3755 
15874 0 5 5.48691 25.9391 28.9757 
15723 0 5 3.7003 28.3722 1.48925 
9136 0 5 2.71042 27.9872 2.39242 
19714 0 5 1.56611 28.8747 3.6599 
26652 0 5 0.928725 28.156 5.45189 
6858 0 5 0.748063 30.9612 4.9387 
15135 0 5 6.05107 30.621 6.01597 
15150 0 5 2.38931 30.1964 6.95071 
10482 0 5 3.68416 29.8527 9.62843 
10549 0 5 2.07758 32.0748 8.95628 
9497 0 5 4.16613 28.0223 10.5961 
11712 0 5 5.26437 27.9557 10.4088 
23343 0 5 2.18625 30.0142 12.8033 
6568 0 5 4.97542 31.1912 13.345 
11009 0 5 5.3379 32.9164 12.3032 
16225 0 5 5.72296 29.5026 14.64 
19994 0 5 3.445 30.5489 14.8439 
3778 0 5 5.86468 29.1183 15.6361 
16674 0 5 4.95354 32.1981 16.6965 
12220 0 5 2.28498 30.7714 24.1537 
4629 0 5 2.52131 28.5134 24.9924 
19039 0 5 5.52426 28.1264 25.5936 
21346 0 5 3.3783 31.6297 25.6966 
1406 0 5 0.733249 28.7299 26.1243 
11307 0 5 3.33256 28.7812 27.2666 
4371 0 5 3.28996 30.6203 27.9528 
4264 0 5 2.13604 32.4619 28.5233 
15457 0 5 2.28623 27.9252 31.2876 
23322 0 5 5.247 28.0693 30.3581 
8687 0 5 2.42284 28.1082 32.4279 
24611 0 5 5.38592 30.6597 33.1978 
1941 0 5 6.47727 1.81724 1.55431 
5597 0 5 9.42094 4.33647 1.65194 
14846 0 5 10.9914 2.99932 1.72601 
12329 0 5 10.1641 0.770945 2.9844 
19249 0 5 10.2717 2.61529 4.00713 
16583 0 5 10.4987 1.49783 4.50679 
6811 0 5 7.1546 2.76294 4.85726 
9245 0 5 7.76499 4.01297 4.70434 
15029 0 5 6.57971 4.94131 4.36227 
23017 0 5 10.7594 5.02614 6.0371 
18349 0 5 10.2227 2.73321 7.21788 
1723 0 5 7.13441 4.79622 7.14905 
18949 0 5 8.28693 3.17424 9.34874 
15981 0 5 9.75802 1.43932 10.8284 
18792 0 5 10.8378 1.88258 10.5425 
302 0 5 6.49663 2.80618 10.3151 
11756 0 5 9.22271 4.46984 13.3033 
1794 0 5 8.28746 4.40546 12.0113 
9300 0 5 9.09538 0.908196 13.9576 
388 0 5 7.23139 2.66301 15.1227 
19531 0 5 8.06626 2.61433 14.1494 
18674 0 5 9.39333 1.64392 15.3126 
13647 0 5 8.87124 4.05853 16.4891 
7996 0 5 10.6816 4.34319 15.6319 
9612 0 5 10.7923 5.31345 16.0968 
21286 0 5 8.29584 1.25714 18.4949 
9579 0 5 9.39541 1.15089 17.7147 
19313 0 5 6.48057 2.35198 19.1641 
20090 0 5 11.1659 3.6416 19.4437 
9350 0 5 6.48078 3.90467 22.6664 
11581 0 5 10.8845 4.62531 23.4977 
23726 0 5 9.53861 1.73032 25.4379 
10457 0 5 7.10518 3.62108 24.4506 
24102 0 5 8.05985 3.9427 24.7499 
17379 0 5 10.7227 2.88656 25.6778 
3889 0 5 6.28155 5.39373 24.3305 
26157 0 5 8.82171 5.4669 25.9867 
26112 0 5 7.68438 2.03898 26.197 
25678 0 5 8.70901 1.76463 28.5082 
17147 0 5 7.90684 2.69069 28.7422 
398 0 5 10.4546 5.19369 28.529 
25065 0 5 7.2903 1.76601 30.2249 
15707 0 5 8.64653 0.721434 30.5082 
3052 0 5 8.31306 1.9646 30.7953 
2443 0 5 9.18916 5.38402 31.3352 
13251 0 5 8.79274 1.9955 32.6586 
22617 0 5 6.58221 5.70722 32.8827 
7579 0 5 8.47363 5.67999 31.9547 
26851 0 5 6.55816 10.5407 2.53857 
23424 0 5 11.1779 6.50938 5.18862 
24565 0 5 6.44806 8.87816 5.57294 
26776 0 5 6.67341 6.98764 17.0988 
16374 0 5 10.3298 6.62313 18.7059 
310 0 5 11.0099 6.93088 17.8403 
12101 0 5 6.47512 9.75083 18.1416 
20910 0 5 7.09331 10.6169 17.9908 
9239 0 5 7.86258 8.07528 20.478 
17118 0 5 10.2701 10.8467 20.4536 
25513 0 5 6.54974 7.58688 21.7682 
4821 0 5 8.58925 6.54099 22.0389 
3421 0 5 7.59202 11.542 23.7708 
11686 0 5 7.47373 8.64683 25.5673 
13638 0 5 8.74572 10.759 25.9141 
18047 0 5 10.3897 9.30401 27.7505 
16393 0 5 8.1972 9.86197 26.1869 
2959 0 5 9.52103 11.5088 28.985 
23985 0 5 6.95373 7.85454 30.3271 
12376 0 5 11.0014 9.16857 30.3699 
8148 0 5 8.97751 11.0596 31.1162 
13508 0 5 8.64563 6.81636 31.8612 
25991 0 5 8.40051 12.5543 4.15859 
16181 0 5 11.0522 13.1727 2.78964 
21811 0 5 6.66875 16.4513 2.63167 
3210 0 5 10.807 12.4331 5.74238 
19228 0 5 9.80663 15.9674 5.12365 
23766 0 5 7.89308 12.0082 6.58799 
2681 0 5 6.15705 11.7399 7.28442 
9230 0 5 7.94191 13.6753 6.90035 
20330 0 5 7.24764 15.5772 9.62664 
171 0 5 6.20108 13.883 11.3318 
22520 0 5 6.41535 15.3484 10.2993 
7688 0 5 8.17008 13.6084 15.3157 
4916 0 5 10.4912 14.0281 16.4972 
13819 0 5 7.95844 13.2897 17.8243 
24622 0 5 11.5521 15.786 18.4326 
25119 0 5 10.7732 12.038 18.8948 
25207 0 5 8.81782 14.4502 22.1726 
4850 0 5 11.0534 15.3042 20.8033 
4561 0 5 6.24195 16.2124 25.4399 
18078 0 5 7.12782 14.048 28.7193 
10961 0 5 8.3275 12.3193 31.0113 
23803 0 5 7.08974 14.9653 30.3109 
1136 0 5 7.8275 14.4833 31.5008 
24445 0 5 9.75854 13.6328 33.055 
3350 0 5 8.56447 15.7078 32.3424 
24594 0 5 10.8635 18.7192 1.84755 
24920 0 5 8.66905 20.549 1.23174 
1354 0 5 10.3476 21.287 1.86737 
23816 0 5 10.8308 19.2788 4.20245 
9972 0 5 7.22901 21.1442 2.82077 
25222 0 5 8.94091 17.8098 6.82673 
17328 0 5 6.53752 17.07 10.8674 
24584 0 5 7.90133 19.0181 10.8637 
24864 0 5 9.1033 18.3537 12.5644 
2752 0 5 11.106 19.716 13.0122 
2893 0 5 7.32501 19.3215 13.6364 
14365 0 5 10.8682 20.3311 14.0791 
16859 0 5 10.4501 17.7434 16.6427 
2563 0 5 9.44344 18.8251 24.6957 
12230 0 5 8.26436 21.1644 26.2906 
5646 0 5 9.7465 17.7589 28.1561 
3621 0 5 10.3006 18.7 28.2391 
12570 0 5 8.30407 21.8278 28.8956 
18762 0 5 9.31392 21.2403 28.4075 
16672 0 5 8.02349 18.1137 31.3193 
18723 0 5 8.2758 21.0965 29.7605 
25727 0 5 6.3274 18.3778 32.3962 
22002 0 5 11.3186 23.3881 2.46213 
20221 0 5 6.52331 22.4863 2.57786 
13710 0 5 9.78598 23.7949 3.15714 
22298 0 5 7.39075 27.7592 3.11909 
1903 0 5 7.27784 27.5059 4.26981 
1634 0 5 7.67151 22.9525 4.38597 
5334 0 5 7.09777 24.2943 5.39048 
17195 0 5 9.60602 27.5961 5.63492 
19433 0 5 6.20817 23.5977 7.16512 
12924 0 5 8.97256 24.5074 6.46686 
21672 0 5 10.2143 24.9373 6.9212 
11752 0 5 8.10751 27.0853 7.19951 
12962 0 5 7.12273 25.1981 8.68797 
14305 0 5 6.65048 24.8727 11.4718 
17727 0 5 11.1921 25.3904 12.708 
21589 0 5 9.11634 27.2299 13.3313 
12519 0 5 10.5598 27.7927 11.638 
8843 0 5 8.10506 25.9527 14.2055 
11249 0 5 9.08125 27.8155 14.373 
14048 0 5 8.29966 25.0579 16.1171 
14702 0 5 8.72464 23.9517 21.7541 
10382 0 5 8.77636 26.8556 20.6198 
24592 0 5 7.21498 24.0973 24.1279 
25544 0 5 8.22068 25.6291 22.8992 
18672 0 5 8.8889 25.5986 23.8322 
5406 0 5 10.1569 27.551 23.7551 
6582 0 5 8.90254 23.1783 27.8724 
22874 0 5 8.01882 23.8274 28.195 
14326 0 5 8.59211 25.5023 30.66 
12539 0 5 9.23187 29.5157 1.63384 
4887 0 5 9.68744 30.2115 2.3548 
20410 0 5 6.26057 27.8789 3.85416 
21889 0 5 10.9444 28.2025 3.97957 
2350 0 5 8.31854 30.9726 4.45047 
4255 0 5 10.6038 31.6531 4.73862 
26404 0 5 6.24144 29.2244 7.23943 
20636 0 5 11.2195 28.2046 6.5011 
18054 0 5 10.1505 29.4085 8.26884 
26332 0 5 10.0871 29.5614 9.51833 
16290 0 5 7.46449 30.4764 9.53041 
24099 0 5 6.54443 32.4507 8.62971 
22245 0 5 8.25415 32.5741 10.1671 
19717 0 5 8.87619 31.0193 11.9624 
6314 0 5 7.43065 32.2069 14.6522 
12888 0 5 9.02701 31.6868 14.2303 
11268 0 5 6.93432 33.1128 16.1376 
11309 0 5 8.09316 31.7096 15.8832 
21350 0 5 10.2149 32.3321 16.2335 
25243 0 5 8.47522 29.5954 19.3008 
17900 0 5 11.4757 29.1833 24.1393 
20642 0 5 6.29643 30.1445 27.7503 
14353 0 5 6.93092 32.7893 26.1268 
4893 0 5 8.42163 28.0118 28.7957 
2827 0 5 6.37963 28.5585 31.0569 
14097 0 5 6.2406 30.8274 30.2397 
15614 0 5 9.72126 32.4842 30.0732 
10211 0 5 7.47109 30.7105 32.5009 
7483 0 5 9.10368 33.0146 31.6635 
16660 0 5 12.3239 2.1535 3.95239 
2463 0 5 13.3189 4.30802 3.40203 
23788 0 5 13.8649 2.82531 3.21814 
13911 0 5 16.1288 2.66397 3.11284 
3190 0 5 11.959 1.46864 5.31276 
14252 0 5 12.5997 2.58806 5.8371 
24953 0 5 14.0412 4.87728 4.90643 
13163 0 5 14.9237 1.10015 6.81517 
6881 0 5 14.2145 4.43986 7.93034 
17745 0 5 13.4026 1.35765 8.64026 
24416 0 5 16.9729 1.57809 11.9969 
2581 0 5 11.7889 5.58467 12.6459 
23849 0 5 11.6111 4.71051 13.3064 
5643 0 5 16.107 5.61399 12.5372 
14081 0 5 16.6921 6.12592 13.3301 
4854 0 5 16.302 1.84123 13.7825 
8247 0 5 12.7874 3.86758 14.867 
3755 0 5 15.3643 3.46786 14.597 
12653 0 5 13.6202 3.47142 16.2287 
21570 0 5 14.499 2.79849 16.2906 
6545 0 5 15.609 5.3056 15.5104 
23947 0 5 15.1666 2.93315 18.6502 
21677 0 5 14.8519 4.82302 17.2942 
25538 0 5 12.9022 1.84718 19.5533 
20282 0 5 13.6265 4.24756 20.3411 
10592 0 5 12.3439 2.94563 21.1622 
3053 0 5 14.4028 1.68961 24.1617 
14830 0 5 15.7713 3.847 23.1991 
11376 0 5 13.7252 2.17515 29.4228 
22415 0 5 14.1488 5.81587 28.097 
11042 0 5 15.592 6.12445 28.1628 
6365 0 5 11.6541 3.97581 29.7589 
486 0 5 14.268 8.41091 0.809326 
9968 0 5 12.8981 10.8437 2.25057 
15953 0 5 15.5937 6.75078 2.94677 
19047 0 5 15.5272 10.7671 2.9688 
4469 0 5 15.4082 6.80889 5.74196 
696 0 5 15.5604 9.74029 4.52353 
12805 0 5 13.1461 6.17995 6.58986 
25850 0 5 11.7588 10.0644 6.64273 
14231 0 5 15.9197 7.38731 8.18419 
22645 0 5 13.2863 6.92964 11.3166 
26628 0 5 15.5941 10.0692 10.7881 
26390 0 5 14.933 9.4345 11.9346 
7441 0 5 11.8843 7.05972 16.0065 
20459 0 5 15.7835 6.99685 16.6659 
21295 0 5 15.1578 9.4992 15.8964 
20756 0 5 15.28 6.71528 17.6665 
26644 0 5 14.1665 8.3845 17.2627 
18680 0 5 15.934 8.67109 17.2699 
2066 0 5 14.7073 10.959 27.0687 
18081 0 5 12.5015 8.08723 29.6307 
18046 0 5 12.1391 9.70702 29.3561 
21963 0 5 14.2796 8.47888 28.6651 
24417 0 5 15.9287 10.3122 28.5364 
25954 0 5 15.9822 9.41826 31.4547 
10288 0 5 15.9315 11.1478 31.2852 
20692 0 5 15.7096 6.54698 31.5796 
18773 0 5 13.9556 8.82529 32.3865 
23711 0 5 15.9429 13.151 2.47771 
21028 0 5 13.6192 15.1705 1.83321 
13685 0 5 12.8857 16.9011 2.97506 
6793 0 5 16.3597 14.6595 4.80487 
14655 0 5 12.4892 13.2389 15.0424 
18534 0 5 12.1122 11.5907 16.8163 
21223 0 5 14.8281 12.9011 16.9819 
12290 0 5 12.5069 14.3302 15.8528 
17912 0 5 16.2549 15.5243 15.2758 
11664 0 5 14.3083 13.644 19.5817 
4653 0 5 16.0175 12.4566 20.9067 
20360 0 5 12.9041 14.3115 20.9621 
4886 0 5 12.195 11.9348 24.9083 
18795 0 5 13.6573 14.0884 31.0646 
13572 0 5 13.0864 13.9835 32.8025 
21270 0 5 14.2573 18.362 1.96689 
1085 0 5 14.9335 17.2761 1.42132 
1011 0 5 12.1964 21.556 2.41405 
11691 0 5 16.1588 21.2842 1.96484 
2150 0 5 15.401 20.5738 2.55155 
7625 0 5 14.617 18.548 5.07891 
24570 0 5 16.7616 18.3321 4.95672 
7780 0 5 15.4907 17.6807 5.55399 
25558 0 5 13.3135 20.4279 5.0555 
7627 0 5 14.9215 20.2879 5.6006 
25864 0 5 16.9051 20.1984 5.73114 
19063 0 5 14.8473 19.8681 7.84354 
12223 0 5 13.2917 17.9993 8.58201 
17210 0 5 12.8847 19.5696 9.19813 
22006 0 5 13.8252 21.0054 8.80562 
13237 0 5 13.1354 17.3909 14.8397 
26459 0 5 11.9776 17.9259 15.0675 
18964 0 5 12.4444 19.8873 14.3324 
20063 0 5 13.632 17.8829 22.7617 
20855 0 5 16.4531 21.5157 25.3557 
14610 0 5 12.742 20.1023 27.567 
14591 0 5 13.6809 21.855 27.5692 
10566 0 5 13.9144 17.83 29.5139 
7007 0 5 14.3933 19.4114 30.5556 
9069 0 5 13.3253 19.989 32.229 
7536 0 5 15.0706 20.9035 32.0189 
15663 0 5 15.5967 22.4602 1.96108 
1173 0 5 12.6737 23.0228 2.53366 
18544 0 5 14.6068 22.4615 2.64697 
18339 0 5 14.6019 25.4811 2.95204 
3668 0 5 11.8334 22.8933 5.66688 
7808 0 5 14.0169 23.9753 6.51713 
14238 0 5 12.1219 25.5739 6.82872 
23777 0 5 12.5907 27.6127 8.0868 
10227 0 5 16.1596 25.5721 11.4643 
14294 0 5 12.5622 26.4458 9.93979 
8353 0 5 14.3281 22.6012 12.5888 
26518 0 5 12.1366 26.4219 11.8492 
8051 0 5 14.4118 26.3432 13.3242 
10684 0 5 16.7283 23.1032 13.7705 
9975 0 5 12.0561 25.6115 14.0286 
19382 0 5 15.8148 25.3209 14.2508 
22563 0 5 16.666 24.3138 16.7109 
7350 0 5 15.758 26.185 20.3836 
16765 0 5 11.7681 26.0574 21.7451 
12532 0 5 12.7441 26.9188 21.8544 
12127 0 5 11.7064 24.5027 23.4023 
12699 0 5 12.2342 24.0726 25.2214 
304 0 5 15.5964 24.6551 24.3832 
8275 0 5 15.8278 25.6578 24.8293 
20338 0 5 13.1196 26.1381 25.4594 
15561 0 5 14.7759 27.277 24.6839 
1465 0 5 15.5017 27.4499 26.2125 
8821 0 5 15.5154 24.1854 28.2839 
2214 0 5 14.705 27.6617 33.1157 
16383 0 5 13.5194 26.384 33.2713 
12450 0 5 16.9078 26.3109 31.7677 
16136 0 5 15.0002 29.7793 4.33237 
9149 0 5 14.3766 32.987 4.26965 
9265 0 5 13.5144 29.4456 5.40461 
4804 0 5 16.4625 31.3866 9.03446 
6669 0 5 11.6187 32.3567 8.25847 
8935 0 5 13.3785 29.3206 10.753 
1001 0 5 14.4506 33.1471 10.9053 
18120 0 5 14.5215 31.0577 12.5331 
5785 0 5 11.9898 32.475 13.3194 
25745 0 5 15.1755 31.919 13.2825 
5386 0 5 15.8829 32.9492 12.2523 
11626 0 5 13.9798 28.2478 13.7591 
13178 0 5 12.7635 29.8855 19.6329 
9924 0 5 11.914 30.0205 18.9656 
10695 0 5 12.8435 32.2414 19.9195 
20809 0 5 13.599 32.7551 19.1 
3196 0 5 12.7081 29.1533 21.4272 
26730 0 5 13.278 31.0425 20.9893 
20463 0 5 16.6646 31.016 21.3826 
2597 0 5 11.9511 32.5391 22.1384 
25718 0 5 11.8278 32.1877 25.047 
18838 0 5 13.4746 29.7199 26.1953 
18809 0 5 14.0535 32.0063 27.1154 
9057 0 5 16.4315 29.2959 29.0117 
5368 0 5 16.391 30.2445 29.5444 
21860 0 5 14.0343 32.8186 29.1755 
8816 0 5 11.7531 28.8751 30.4881 
24218 0 5 19.7075 1.90774 1.91217 
4813 0 5 20.9792 4.19692 1.46203 
1882 0 5 17.8175 1.03737 3.75257 
24025 0 5 17.4587 4.91411 3.64116 
13282 0 5 18.4366 4.69242 2.87898 
21659 0 5 20.886 5.20607 2.56061 
18678 0 5 18.3419 4.21544 4.3986 
6284 0 5 18.2548 4.85464 5.566 
8848 0 5 17.8778 3.87409 6.92808 
5292 0 5 18.5009 5.76916 6.15342 
22524 0 5 19.474 5.17677 6.31549 
18337 0 5 17.5631 2.67153 11.2179 
26367 0 5 20.5167 4.80326 10.0438 
5133 0 5 21.0335 5.10559 13.3184 
16748 0 5 21.3998 6.01203 13.7369 
16191 0 5 18.2011 5.66084 16.2949 
905 0 5 22.229 5.2196 16.8729 
20758 0 5 21.836 5.51994 17.7872 
66 0 5 17.3241 3.383 19.6322 
13419 0 5 18.3074 3.44009 26.6779 
20087 0 5 18.0017 4.78889 26.3605 
18077 0 5 20.8434 1.11636 28.9276 
11625 0 5 18.1321 5.16386 29.108 
23763 0 5 19.0024 5.99736 28.9394 
16224 0 5 18.7741 2.24233 30.0004 
20214 0 5 21.1089 3.98888 30.345 
19173 0 5 21.3736 1.16073 32.5604 
12292 0 5 18.7437 4.26445 31.8469 
15659 0 5 19.9052 5.53812 32.1684 
9906 0 5 18.2792 6.55914 1.59349 
5456 0 5 18.7217 9.55527 1.17873 
963 0 5 22.3579 9.77715 1.10887 
11142 0 5 18.4051 9.60162 2.58825 
25580 0 5 17.7645 9.72852 3.63205 
8378 0 5 21.2351 9.9787 7.57427 
5280 0 5 19.3238 7.02607 8.12026 
8705 0 5 21.7676 9.05649 9.13911 
12302 0 5 20.4436 7.36217 11.1152 
20799 0 5 19.4963 9.49297 10.5338 
10521 0 5 20.5068 9.25111 10.8817 
19115 0 5 17.5597 10.6294 10.5529 
9749 0 5 19.859 8.87444 11.7041 
25218 0 5 21.1809 10.284 13.0157 
8016 0 5 17.3187 7.52837 14.9889 
26968 0 5 20.9775 8.51084 14.6429 
20349 0 5 18.2721 11.1119 14.9926 
10535 0 5 20.0079 8.43515 16.1871 
3612 0 5 19.6231 8.84363 20.267 
1056 0 5 19.828 8.29301 24.1499 
25928 0 5 22.1568 10.6223 23.8728 
3632 0 5 19.6548 6.29864 25.5294 
2527 0 5 20.8223 7.2911 26.2184 
18470 0 5 22.3326 6.29104 27.0484 
743 0 5 18.3519 8.17581 28.697 
25285 0 5 21.1288 6.45167 30.8574 
17456 0 5 19.9037 9.68615 30.6505 
4515 0 5 17.1096 10.3675 30.1398 
12344 0 5 20.2003 11.3583 30.739 
4697 0 5 20.0363 8.3566 32.8724 
25521 0 5 21.1387 8.56338 31.7291 
3309 0 5 21.2852 8.64447 33.0624 
18588 0 5 17.8903 10.5261 31.6238 
13539 0 5 19.8903 12.8631 1.60911 
26743 0 5 20.9262 14.3543 2.26048 
12561 0 5 20.6711 13.7024 1.31767 
21341 0 5 17.4689 15.3956 1.28928 
3389 0 5 17.3063 11.879 3.91952 
22530 0 5 20.928 11.7969 3.19851 
3427 0 5 21.7746 11.7024 4.06347 
9909 0 5 21.848 11.8792 9.99517 
6399 0 5 20.9788 12.9693 12.6406 
15076 0 5 22.0587 14.0794 12.6273 
17823 0 5 17.1578 13.7644 15.4796 
22829 0 5 17.3635 13.0665 19.5935 
4734 0 5 17.5029 14.1546 21.4335 
22737 0 5 19.4561 15.1005 21.7276 
24879 0 5 20.0163 13.4846 20.6857 
4768 0 5 21.4531 14.7968 21.7821 
22644 0 5 17.5455 16.5375 22.0478 
5350 0 5 21.6197 15.2458 22.9179 
20033 0 5 19.912 17.9247 2.23253 
11320 0 5 17.4871 19.1807 1.44175 
26014 0 5 20.7806 22.0977 13.1721 
6361 0 5 19.6225 19.1175 14.7635 
23986 0 5 19.8449 20.1318 16.6034 
10053 0 5 21.9017 20.9381 16.8678 
10503 0 5 22.3366 20.9361 15.2185 
19779 0 5 20.4441 19.0408 17.8178 
25876 0 5 20.3303 20.2506 18.6004 
26022 0 5 21.5827 17.8673 20.0271 
12365 0 5 17.0851 18.1159 23.8161 
25199 0 5 21.0859 17.7905 24.5365 
18079 0 5 22.319 21.1481 24.4518 
25808 0 5 22.2987 21.2228 32.9056 
22652 0 5 21.4588 20.77 31.9309 
8196 0 5 17.6263 23.3604 1.97086 
24502 0 5 19.6757 24.4687 2.03031 
21496 0 5 21.1699 27.4268 2.28041 
18446 0 5 17.4829 22.9326 9.79718 
10718 0 5 18.7861 27.6387 12.8663 
16563 0 5 20.5478 25.7353 15.9806 
14216 0 5 20.7334 27.4704 16.0634 
20762 0 5 21.185 23.9128 17.2332 
6062 0 5 17.7303 25.5228 17.9454 
16188 0 5 20.0735 25.276 18.5341 
7645 0 5 21.4054 26.8249 18.1564 
25945 0 5 19.0651 25.2401 20.3184 
13177 0 5 20.5972 24.5592 22.2559 
23144 0 5 19.7213 22.9683 23.1815 
7273 0 5 18.3234 24.6704 23.936 
22559 0 5 20.0174 22.9786 25.7691 
11271 0 5 20.0813 26.889 24.2918 
23764 0 5 22.0556 24.8585 26.7592 
13412 0 5 21.2909 26.5001 27.4065 
23937 0 5 22.1175 25.4088 29.0729 
20086 0 5 21.9917 26.09 30.3197 
22149 0 5 22.3604 24.9437 32.1067 
4101 0 5 22.2443 26.0028 31.8097 
15816 0 5 20.2737 30.5716 0.963553 
7490 0 5 22.2485 30.902 0.937891 
12771 0 5 21.5079 29.6146 3.99483 
12466 0 5 19.3834 30.8966 2.59563 
14371 0 5 21.6947 30.6348 4.67993 
18800 0 5 20.6349 32.365 4.37539 
6277 0 5 18.2631 33.18 8.25827 
19333 0 5 17.0408 29.1519 11.2341 
15711 0 5 22.0842 32.6002 10.0495 
25451 0 5 19.4849 27.9434 14.6399 
21651 0 5 19.5656 30.0285 14.8021 
5405 0 5 20.6612 29.731 14.6761 
14251 0 5 22.2536 29.1179 18.3911 
8930 0 5 20.0906 30.036 17.6158 
22089 0 5 22.1432 28.5498 20.9196 
5664 0 5 20.5538 31.0492 21.3892 
1527 0 5 21.5187 30.9099 21.8748 
18772 0 5 21.3888 31.832 23.4884 
7976 0 5 17.9068 32.0127 24.9026 
24210 0 5 19.2051 29.1561 27.8526 
12971 0 5 21.4592 28.6134 26.3627 
10367 0 5 21.972 29.7891 27.6444 
16308 0 5 21.669 28.0387 28.6938 
26252 0 5 22.1469 31.8987 28.5921 
11748 0 5 18.3543 30.8506 29.6826 
9871 0 5 21.5734 30.4577 29.9718 
7529 0 5 21.9473 32.6405 30.6806 
3774 0 5 17.4377 29.8478 32.8344 
3406 0 5 20.6665 30.726 32.4079 
13039 0 5 24.7006 2.02833 2.60858 
18958 0 5 22.7755 2.75428 4.33559 
12700 0 5 27.6337 1.41925 6.01125 
20994 0 5 24.5195 4.73078 6.86289 
22836 0 5 26.7356 4.46879 6.49591 
5264 0 5 26.2685 2.20151 8.39328 
17740 0 5 26.2405 1.15195 8.22271 
21875 0 5 25.0259 4.68813 12.2347 
7196 0 5 26.1957 2.64625 15.5823 
3152 0 5 24.3191 4.82157 16.4695 
10417 0 5 23.7866 4.34595 20.129 
6395 0 5 25.7268 3.38271 21.9709 
20178 0 5 24.5624 2.53675 22.8474 
6594 0 5 26.7749 2.08621 24.4403 
9834 0 5 23.2065 4.15531 25.2591 
9597 0 5 22.4463 5.77033 25.7129 
8605 0 5 24.5391 2.70933 26.6445 
2767 0 5 23.8123 4.62933 26.3621 
14227 0 5 23.7845 1.27614 28.0592 
7287 0 5 22.9488 3.17211 28.9376 
4355 0 5 23.6071 4.48315 30.3528 
499 0 5 27.8147 1.55084 33.2112 
13474 0 5 25.2717 6.6528 0.846926 
15941 0 5 24.3371 7.58783 0.940096 
13986 0 5 24.4257 8.62916 1.2484 
5640 0 5 24.5719 8.11619 4.20533 
6357 0 5 24.7476 6.75564 8.06653 
7593 0 5 27.2145 11.3168 8.42598 
4885 0 5 22.9953 7.23355 10.9875 
21033 0 5 25.1766 9.19007 11.5414 
4226 0 5 25.4387 8.2942 10.6448 
22200 0 5 23.1221 10.2406 9.82957 
18072 0 5 27.8317 9.45872 11.986 
24435 0 5 24.6082 9.90588 13.3442 
21675 0 5 22.4434 8.18079 13.715 
1613 0 5 23.5984 7.17287 16.4232 
19662 0 5 25.7188 9.21415 15.3083 
15429 0 5 26.6647 11.4555 16.4765 
8799 0 5 25.3783 8.84974 17.8928 
19075 0 5 23.7589 7.83182 20.3951 
7109 0 5 24.6777 8.57159 19.557 
14473 0 5 23.9755 7.28679 21.418 
25728 0 5 24.0308 6.28677 23.5898 
17833 0 5 24.9741 9.90554 22.784 
1597 0 5 22.8741 9.75347 25.5064 
12474 0 5 25.9858 7.3318 30.9357 
6359 0 5 24.856 10.7528 31.4359 
15606 0 5 23.2035 10.2258 33.2473 
7282 0 5 27.5926 11.0662 33.2781 
4221 0 5 27.831 13.2271 1.15391 
25644 0 5 24.8504 15.1528 0.863533 
1357 0 5 27.3386 14.2359 7.43478 
3390 0 5 27.6705 13.1855 11.1718 
15991 0 5 26.3596 13.3499 12.7121 
9423 0 5 23.2051 13.4311 14.1441 
8000 0 5 24.8442 14.9058 13.6196 
2355 0 5 23.8678 16.1181 14.0485 
3141 0 5 25.1924 15.3425 20.4522 
7845 0 5 24.1215 16.087 21.057 
5121 0 5 25.7549 14.4877 27.6025 
26198 0 5 27.3361 15.9986 26.6562 
24559 0 5 27.2512 12.1914 31.7124 
6804 0 5 22.6878 13.4444 32.4758 
3392 0 5 27.3352 14.8103 32.2119 
12720 0 5 26.6762 13.4847 33.1257 
12954 0 5 26.4142 20.4225 4.02204 
6233 0 5 25.2565 21.1754 3.77404 
15883 0 5 27.6355 17.6644 6.10459 
8929 0 5 26.2387 22.0713 5.83175 
17100 0 5 26.9589 21.2674 7.43144 
451 0 5 27.4386 18.6327 9.00673 
15224 0 5 27.3713 20.3529 9.84322 
5248 0 5 25.7943 18.4036 11.9054 
23023 0 5 24.7775 19.0808 16.6877 
698 0 5 27.714 20.8399 15.4374 
2562 0 5 24.6711 18.9158 18.2175 
6585 0 5 25.9695 21.0453 18.9989 
3143 0 5 23.9383 19.4807 23.2857 
10575 0 5 22.5031 20.839 23.3775 
15704 0 5 24.9715 17.0956 24.4015 
12330 0 5 22.6431 19.3894 25.0541 
14779 0 5 23.9351 21.0973 25.7393 
3209 0 5 23.2052 18.8685 29.54 
4288 0 5 23.4143 20.9813 30.0166 
5125 0 5 24.951 20.7222 33.0336 
26868 0 5 23.0962 24.23 2.26718 
2847 0 5 26.623 24.5136 1.86409 
24695 0 5 24.1204 26.7165 2.23901 
1349 0 5 26.9736 22.9277 3.35428 
20997 0 5 26.8342 23.4943 5.42876 
3698 0 5 27.5715 24.6462 4.56249 
15967 0 5 25.6898 23.1406 16.4662 
7995 0 5 22.4697 25.5471 16.7245 
12432 0 5 25.4073 24.7192 16.951 
6835 0 5 24.9964 27.5875 16.0008 
3676 0 5 22.7556 23.4765 18.3279 
23342 0 5 25.7426 24.0954 17.8046 
3285 0 5 26.6676 23.9385 18.3022 
21789 0 5 26.8108 26.9957 18.5568 
21642 0 5 27.505 23.8673 18.9604 
3710 0 5 25.8472 23.6952 20.7161 
18496 0 5 22.522 25.2415 22.1255 
16858 0 5 26.8965 25.6049 21.7378 
20968 0 5 25.9664 26.3238 22.2304 
25820 0 5 22.4981 23.894 22.6996 
16753 0 5 27.1674 22.5983 23.6834 
12102 0 5 23.3155 24.3597 24.2045 
373 0 5 24.559 27.1017 23.3829 
898 0 5 24.0061 23.3688 25.9988 
4076 0 5 25.5448 27.0377 24.8802 
25925 0 5 26.358 26.313 24.24 
11143 0 5 27.362 26.6091 26.6285 
5026 0 5 22.815 25.9545 28.4309 
3713 0 5 22.9758 26.4397 29.5006 
18197 0 5 24.0649 28.7715 1.13787 
20234 0 5 27.3351 30.6751 2.04662 
10950 0 5 22.6335 32.9392 5.82035 
4796 0 5 24.897 33.1672 5.62707 
22037 0 5 26.0533 31.7695 6.04316 
25197 0 5 26.3578 32.5494 11.0773 
9254 0 5 24.9246 30.3163 13.0797 
16981 0 5 23.9816 28.3327 20.0008 
14108 0 5 24.6113 28.3171 21.2856 
14095 0 5 23.2254 31.3389 22.3129 
152 0 5 27.2605 31.8937 20.8051 
25556 0 5 22.5775 28.453 23.3524 
25620 0 5 26.2285 28.0246 23.1618 
22348 0 5 25.9036 28.0732 25.8122 
21793 0 5 24.3066 27.8541 25.5319 
19965 0 5 27.4642 30.6238 25.0037 
23016 0 5 25.875 31.2198 26.8667 
3317 0 5 24.027 32.4973 26.4535 
5115 0 5 27.2385 32.7616 27.376 
178 0 5 24.9102 30.0214 29.4616 
10737 0 5 27.3664 30.5977 29.8459 
14079 0 5 22.9459 28.9585 33.0218 
6214 0 5 26.1489 28.1089 32.2859 
20194 0 5 23.0081 31.9522 31.8952 
23665 0 5 25.65 32.9914 32.5974 
10381 0 5 29.3476 1.50798 2.33855 
7173 0 5 30.4928 5.65044 1.55025 
24961 0 5 31.9724 2.57847 3.43135 
14232 0 5 32.7817 4.76376 7.64519 
25214 0 5 30.1418 3.74902 9.5397 
4635 0 5 32.8453 2.99195 8.71209 
6418 0 5 30.8018 1.67667 13.1777 
20057 0 5 30.7241 1.95395 12.1683 
14234 0 5 30.0147 4.93856 14.4198 
9563 0 5 31.2742 3.78667 20.0421 
19964 0 5 30.0445 2.72533 21.8027 
16135 0 5 29.5707 1.31774 22.6822 
7706 0 5 30.6972 4.88827 22.7324 
16065 0 5 28.5848 2.26097 25.2805 
25290 0 5 30.9464 6.05684 25.5481 
13104 0 5 31.0981 1.13618 27.0257 
15620 0 5 30.0595 1.16777 26.4283 
15661 0 5 33.2681 1.03237 27.1256 
26120 0 5 29.7673 3.36721 27.6981 
25720 0 5 31.9406 4.60395 26.6965 
11542 0 5 29.517 3.25981 29.1675 
25778 0 5 28.0015 1.07626 30.1414 
11600 0 5 29.3553 1.64921 30.1112 
25325 0 5 32.5894 3.36621 29.732 
10550 0 5 28.9692 4.52822 31.3757 
22368 0 5 31.3044 5.84361 31.1447 
10813 0 5 32.5564 5.14529 31.4048 
10242 0 5 29.0751 6.17898 1.7789 
18330 0 5 31.7368 6.81592 3.23425 
25298 0 5 32.8257 8.47176 3.98904 
22113 0 5 28.6264 8.59385 6.00981 
7715 0 5 29.9072 10.5851 4.84417 
9161 0 5 31.3031 7.0479 6.58301 
9960 0 5 29.6466 10.5419 6.66164 
5489 0 5 30.614 6.76269 9.28941 
26085 0 5 30.979 9.32611 9.28686 
21395 0 5 29.4639 9.87782 9.5307 
21653 0 5 32.7595 11.506 9.63303 
25046 0 5 33.0643 9.27187 11.0442 
4507 0 5 30.2814 9.54951 12.3827 
26492 0 5 28.6573 6.45382 22.2447 
221 0 5 31.9071 6.81091 22.2492 
14894 0 5 32.9936 9.21821 24.1107 
11746 0 5 27.8728 9.83508 23.8843 
13283 0 5 28.9062 10.2439 25.7065 
22077 0 5 31.9931 10.9741 26.4787 
6666 0 5 31.7452 6.15311 28.326 
6402 0 5 30.6222 8.18529 29.5675 
23934 0 5 28.787 10.1224 31.2478 
14466 0 5 30.3829 9.88676 31.2635 
8542 0 5 31.4036 6.80115 32.9704 
17223 0 5 30.1079 12.5185 0.948078 
6706 0 5 27.9956 14.7964 2.16994 
25733 0 5 28.2835 14.5532 0.990028 
18898 0 5 31.6895 14.1149 1.05486 
6830 0 5 31.4154 16.9266 2.39023 
8617 0 5 31.2449 15.259 1.11823 
20265 0 5 30.9601 15.5966 4.92017 
16906 0 5 29.2026 13.2902 7.79237 
1538 0 5 32.3922 11.8075 7.11891 
7749 0 5 32.2108 12.1526 10.4311 
11735 0 5 31.8094 14.5124 10.2337 
5512 0 5 30.0148 15.0042 12.9894 
5363 0 5 28.2957 11.7049 13.8343 
5092 0 5 30.288 15.6888 13.9353 
1934 0 5 28.5117 12.5138 16.5708 
8142 0 5 30.7313 16.014 20.6576 
24944 0 5 31.0922 14.0247 23.7696 
10293 0 5 31.1529 11.6294 24.9936 
9459 0 5 29.2152 15.2253 25.166 
26078 0 5 31.6518 15.3355 25.0435 
16770 0 5 31.9556 16.2017 29.3976 
19254 0 5 29.7406 16.415 30.364 
22841 0 5 32.3778 14.8114 31.5514 
975 0 5 33.0014 16.0178 32.8724 