LAMMPS (3 Mar 2020)
OMP_NUM_THREADS environment is not set. Defaulting to 1 thread. (src/comm.cpp:94)
  using 1 OpenMP thread(s) per MPI task
Reading data file ...
  orthogonal box = (0 0 0) to (34 34 34)
  6 by 6 by 6 MPI processor grid
  reading atoms ...
  28900 atoms
  scanning bonds ...
  1 = max bonds/atom
  reading bonds ...
  8700 bonds
Finding 1-2 1-3 1-4 neighbors ...
  special bond factors lj:   0          0          0         
  special bond factors coul: 0          0          0         
  2 = max # of 1-2 neighbors
  2 = max # of 1-3 neighbors
  4 = max # of 1-4 neighbors
  6 = max # of special neighbors
  special bonds CPU = 2.49007 secs
  read_data CPU = 2.66679 secs
8100 atoms in group polyA
900 atoms in group sticker
900 atoms in group counterions
9000 atoms in group chain
1900 atoms in group filler
13300 atoms in group water
3800 atoms in group salt
27000 atoms in group exc
Finding 1-2 1-3 1-4 neighbors ...
  special bond factors lj:   0          1          1         
  special bond factors coul: 0          1          1         
  2 = max # of 1-2 neighbors
  6 = max # of special neighbors
  special bonds CPU = 0.0206866 secs
100 rigid bodies with 1900 atoms
Neighbor list info ...
  update every 1 steps, delay 0 steps, check yes
  max neighbors/atom: 2000, page size: 100000
  master list distance cutoff = 1.7
  ghost atom cutoff = 1.7
  binsize = 0.85, bins = 40 40 40
  1 neighbor lists, perpetual/occasional/extra = 1 0 0
  (1) pair soft, perpetual
      attributes: half, newton on
      pair build: half/bin/newton
      stencil: half/bin/3d/newton
      bin: standard
Setting up Verlet run ...
  Unit style    : lj
  Current step  : 0
  Time step     : 0.005
WARNING: Communication cutoff 1.7 is shorter than a bond length based estimate of 1.755. This may lead to errors. (src/comm.cpp:686)
Per MPI rank memory allocation (min/avg/max) = 13.02 | 14.57 | 15.14 Mbytes
Step Temp Press TotEng Volume 
       0   0.79936292    5.5596367     18.35455        39304 
   10000   0.79528628    11.456434     12.02251        39304 
   20000   0.79997013    12.845491    12.402966        39304 
   30000   0.80270163    14.308202    12.755359        39304 
   40000   0.80087134    15.753139    13.101409        39304 
   50000   0.79716438    17.136186    13.431473        39304 
   60000   0.80038611     18.54597    13.772515        39304 
   70000   0.79700139    19.910005    14.090899        39304 
   80000   0.79470221    21.385122    14.430986        39304 
   90000   0.79544354    22.751157    14.764411        39304 
  100000   0.80133089    24.175382    15.121573        39304 
  110000   0.79793373    25.557334    15.466274        39304 
  120000   0.80046403    26.933411    15.832181        39304 
  130000   0.80180622    28.363025    16.192886        39304 
  140000   0.79878289    29.751452    16.545154        39304 
  150000   0.79655384    31.125877    16.920782        39304 
  160000   0.81008138    32.526251    17.314091        39304 
  170000   0.79724469    33.896118    17.652607        39304 
  180000   0.80602727    35.278116    18.042464        39304 
  190000   0.79541787    36.686694    18.398641        39304 
  200000   0.80385434    38.087845    18.791789        39304 
  210000    0.7973549    39.412965    19.147384        39304 
  220000     0.796537    40.779265    19.530386        39304 
  230000   0.79705231    42.127538    19.899505        39304 
  240000   0.79925297    43.531045    20.280039        39304 
  250000   0.80141926    44.931087    20.647783        39304 
  260000   0.80263674    46.297639    21.027727        39304 
  270000     0.793107    47.625579    21.381911        39304 
  280000   0.80491554    48.992887    21.775231        39304 
  290000   0.78980329    50.371122     22.13394        39304 
  300000   0.79859809    51.782347    22.505032        39304 
  310000   0.80414419    53.140533    22.884356        39304 
  320000   0.79523184    54.500234    23.242753        39304 
  330000   0.79585572     55.80399    23.622965        39304 
  340000   0.79881072    57.259099    23.997003        39304 
  350000   0.79898007    58.543355    24.367505        39304 
  360000    0.7975983    59.876137    24.746665        39304 
  370000    0.7947188    61.275114    25.102762        39304 
  380000   0.80061646    62.648247    25.496438        39304 
  390000   0.79934949    63.924719    25.863446        39304 
  400000   0.80330053    65.366589     26.23756        39304 
  410000    0.7987055    66.663915    26.590306        39304 
  420000   0.80041004    67.995528    26.964764        39304 
  430000   0.80945981    69.376951    27.361693        39304 
  440000    0.8071502     70.71615     27.72139        39304 
  450000   0.80341893    72.054167    28.081054        39304 
  460000   0.79873444    73.300064    28.435618        39304 
  470000   0.79713306     74.70531    28.807437        39304 
  480000    0.7987925    76.084686    29.182288        39304 
  490000   0.80493166    77.451534    29.555308        39304 
  500000   0.80084231    78.795509    29.917826        39304 
  510000   0.79896568    80.146056    30.283824        39304 
  520000   0.80183191    81.406403    30.652594        39304 
  530000   0.80680685    82.812825    31.031742        39304 
  540000   0.80437921    84.073735     31.40103        39304 
  550000   0.79460585    85.427818    31.742115        39304 
  560000   0.80218857    86.844979    32.125438        39304 
  570000   0.79850176    88.133808    32.486696        39304 
  580000   0.79818147    89.433572    32.859309        39304 
  590000   0.80405979    90.810989    33.230968        39304 
  600000   0.79541464    92.084153    33.584131        39304 
  610000   0.79999717     93.55845    33.968912        39304 
  620000   0.81163598    94.805032    34.347112        39304 
  630000   0.79526642    96.153587    34.674825        39304 
  640000   0.80425925    97.545502    35.060967        39304 
  650000   0.80204473    98.769076    35.421779        39304 
  660000   0.79690841    100.11592    35.777857        39304 
  670000   0.80132453    101.50311    36.153231        39304 
  680000   0.80173163    102.79327    36.522892        39304 
  690000   0.80172128     103.9899    36.884124        39304 
  700000    0.7967566    105.35157    37.245733        39304 
  710000   0.80308847    106.72182    37.609467        39304 
  720000   0.80180671     108.0325    37.988233        39304 
  730000    0.7942819    109.38283    38.327604        39304 
  740000   0.78980134     110.6566    38.690078        39304 
  750000   0.80326195    111.99534    39.072674        39304 
  760000   0.80141702    113.27871    39.425719        39304 
  770000   0.80105181    114.60649    39.789961        39304 
  780000   0.80165765    115.96775    40.159967        39304 
  790000   0.79986874    117.18466    40.523229        39304 
  800000   0.79828797    118.53974    40.890897        39304 
  810000   0.80915123    119.90419    41.267097        39304 
  820000   0.79823886      121.178     41.59409        39304 
  830000   0.79536427    122.54303    41.973781        39304 
  840000   0.80004083    123.80518    42.335289        39304 
  850000   0.80483463    125.07449    42.699217        39304 
  860000   0.80836819    126.47831    43.064166        39304 
  870000   0.80170044    127.74374    43.424098        39304 
  880000   0.80208927    129.06127    43.787848        39304 
  890000   0.80401568    130.30855    44.152305        39304 
  900000   0.79907182    131.64342    44.511339        39304 
  910000    0.8029835    132.90072    44.870615        39304 
  920000   0.80029922     134.2887    45.228876        39304 
  930000   0.79850413    135.58267     45.58659        39304 
  940000   0.80500183    136.96866     45.97047        39304 
  950000   0.80024989    138.26998    46.306412        39304 
  960000   0.80040343    139.54837    46.668757        39304 
  970000   0.80474092    140.74061    47.039015        39304 
  980000   0.80208334    142.20681    47.392541        39304 
  990000   0.80245595    143.39949    47.755931        39304 
 1000000   0.80053333    144.63742    48.107129        39304 
 1010000   0.80129195    145.98856    48.466982        39304 
 1020000   0.79910517    147.39293    48.824519        39304 
 1030000   0.79995079    148.64333    49.186438        39304 
 1040000   0.79903305    149.96277    49.549529        39304 
 1050000   0.80443946    151.26554    49.908786        39304 
 1060000   0.79965467    152.56268    50.270181        39304 
 1070000   0.79575445    153.78098    50.626072        39304 
 1080000   0.80381011    155.19765    50.993571        39304 
 1090000   0.80277566    156.44031    51.349991        39304 
 1100000   0.80434345    157.75463     51.71174        39304 
 1110000   0.80043832    159.05059    52.062984        39304 
 1120000   0.79684408    160.33822    52.418966        39304 
 1130000   0.80108095    161.61122    52.774537        39304 
 1140000   0.80043471    162.91518    53.137881        39304 
 1150000   0.79412639    164.24387    53.485624        39304 
 1160000   0.79741221    165.51682    53.847398        39304 
 1170000   0.80793005    166.82712    54.215664        39304 
 1180000   0.80111567    168.08601    54.567831        39304 
 1190000   0.80161475    169.41312    54.911229        39304 
 1200000   0.80469285    170.71312     55.29464        39304 
 1210000   0.80418787     172.0965    55.641169        39304 
 1220000   0.79425011    173.27368    55.982558        39304 
 1230000   0.80195202    174.52243    56.347292        39304 
 1240000   0.79944329    175.79205    56.710224        39304 
 1250000   0.79763134     177.1372    57.071556        39304 
 1260000   0.79623253    178.37928    57.426003        39304 
 1270000   0.80049307     179.8307    57.782164        39304 
 1280000   0.79957611     180.9869    58.147291        39304 
 1290000   0.79671858    182.23835    58.491095        39304 
 1300000   0.79343012    183.58809    58.849179        39304 
 1310000   0.80197275    184.95193    59.218953        39304 
 1320000   0.79875669    186.08549    59.571037        39304 
 1330000   0.79728197    187.41027    59.916826        39304 
 1340000   0.79064024    188.71211    60.267972        39304 
 1350000   0.79450089    190.00758    60.627021        39304 
 1360000   0.80232754    191.29732     61.00596        39304 
 1370000   0.79666245    192.57597     61.34291        39304 
 1380000   0.80452907    193.89877    61.710286        39304 
 1390000   0.79660475     195.1276    62.048481        39304 
 1400000   0.79556419    196.38635     62.40919        39304 
 1410000   0.79889352     197.7473    62.766295        39304 
 1420000   0.80257744    198.91014    63.128887        39304 
 1430000   0.79772292    200.27382    63.484467        39304 
 1440000   0.80255533    201.65791    63.838323        39304 
 1450000   0.79962669    202.90126    64.198099        39304 
 1460000   0.79986147    204.12653    64.544387        39304 
 1470000   0.80509193    205.38972    64.906241        39304 
 1480000    0.7973518    206.74731    65.248615        39304 
 1490000   0.79944416    207.90944    65.595948        39304 
 1500000    0.7911112    209.18469    65.942193        39304 
 1510000   0.79178362    210.49938    66.307478        39304 
 1520000   0.79958702    211.75307    66.669089        39304 
 1530000   0.80197016    213.06836    67.023951        39304 
 1540000   0.80026661    214.30969    67.392031        39304 
 1550000    0.7989217    215.53887     67.73305        39304 
 1560000   0.80181807    216.88988     68.09617        39304 
 1570000   0.79775609    218.13619    68.447817        39304 
 1580000   0.80211639    219.33676    68.797505        39304 
 1590000   0.79134879     220.6225    69.138754        39304 
 1600000   0.79935349    221.98199    69.496062        39304 
 1610000   0.79115925    223.24942    69.844258        39304 
 1620000   0.80070316    224.52158    70.222561        39304 
 1630000   0.79823565    225.87054    70.563645        39304 
 1640000   0.79542063    227.05658    70.910951        39304 
 1650000    0.8010073    228.31987    71.276136        39304 
 1660000     0.792862    229.56846    71.614202        39304 
 1670000   0.80171159    230.89095    71.970258        39304 
 1680000     0.798287    232.37694    72.321016        39304 
 1690000   0.79286296    233.52827     72.67151        39304 
 1700000   0.79640317    234.71759     73.02557        39304 
 1710000   0.80270397    236.02332    73.393416        39304 
 1720000   0.79863775    237.28479    73.740512        39304 
 1730000   0.79675465    238.53093    74.087043        39304 
 1740000   0.79315133    239.83433    74.436923        39304 
 1750000   0.80396202    241.04201    74.796727        39304 
 1760000    0.7951207    242.39648    75.137975        39304 
 1770000   0.80755082    243.65815    75.506706        39304 
 1780000   0.79532426    244.83029    75.866265        39304 
 1790000   0.79908378    246.23899    76.210535        39304 
 1800000   0.80071432    247.30612    76.558438        39304 
 1810000   0.80340205    248.80799    76.920371        39304 
 1820000     0.801989    249.86461    77.259589        39304 
 1830000   0.79738666    251.28257    77.616029        39304 
 1840000   0.80109765    252.50673    77.974155        39304 
 1850000   0.80067335    253.80675    78.325245        39304 
 1860000   0.79754887     255.1074    78.674959        39304 
 1870000   0.79660496    256.37812     79.01478        39304 
 1880000   0.79713907    257.55416    79.374309        39304 
 1890000   0.80150068     258.7571    79.733608        39304 
 1900000   0.80453212    260.04472    80.095288        39304 
 1910000    0.8009588    261.44285    80.438699        39304 
 1920000   0.79909686    262.71041    80.774385        39304 
 1930000   0.80297589    263.96529    81.130584        39304 
 1940000   0.80424238    265.19523    81.484765        39304 
 1950000   0.79670827    266.48499    81.817721        39304 
 1960000    0.7980339    267.87799    82.180401        39304 
 1970000   0.80326078    269.01954    82.535844        39304 
 1980000   0.79659847    270.31153    82.878016        39304 
 1990000   0.81331553    271.51325    83.251573        39304 
 2000000   0.79956398    272.70152    83.586965        39304 
Loop time of 1107.26 on 216 procs for 2000000 steps with 28900 atoms

Performance: 780307.377 tau/day, 1806.267 timesteps/s
99.9% CPU use with 216 MPI tasks x 1 OpenMP threads

MPI task timing breakdown:
Section |  min time  |  avg time  |  max time  |%varavg| %total
---------------------------------------------------------------
Pair    | 131.29     | 140.45     | 167.31     |  47.4 | 12.68
Bond    | 1.3798     | 2.857      | 4.9268     |  41.3 |  0.26
Neigh   | 71.64      | 77.532     | 83.663     |  24.2 |  7.00
Comm    | 256.77     | 300.71     | 334.26     |  91.1 | 27.16
Output  | 0.58298    | 0.58621    | 0.60328    |   0.2 |  0.05
Modify  | 411.19     | 439.56     | 491.24     |  67.9 | 39.70
Other   |            | 145.6      |            |       | 13.15

Nlocal:    133.796 ave 172 max 114 min
Histogram: 4 23 66 77 21 10 8 3 3 1
Nghost:    415.019 ave 474 max 383 min
Histogram: 9 27 52 57 38 20 7 4 1 1
Neighs:    923.894 ave 1280 max 782 min
Histogram: 10 50 79 45 12 6 7 3 3 1

Total # of neighbors = 199561
Ave neighs/atom = 6.90522
Ave special neighs/atom = 0.602076
Neighbor list builds = 237354
Dangerous builds = 0
System init for write_data ...
Neighbor list info ...
  update every 1 steps, delay 0 steps, check yes
  max neighbors/atom: 2000, page size: 100000
  master list distance cutoff = 2.8
  ghost atom cutoff = 2.8
  binsize = 1.4, bins = 25 25 25
  1 neighbor lists, perpetual/occasional/extra = 1 0 0
  (1) pair lj/cut, perpetual
      attributes: half, newton on
      pair build: half/bin/newton
      stencil: half/bin/3d/newton
      bin: standard
Setting up Verlet run ...
  Unit style    : lj
  Current step  : 2000000
  Time step     : 0.005
Per MPI rank memory allocation (min/avg/max) = 13.17 | 14.69 | 15.17 Mbytes
Step Temp Press TotEng Volume 
 2000000   0.79956398    9.9854603    5.1857601        39304 
 2010000   0.79551885  -0.24007828    2.2555578    35647.287 
 2020000   0.79875685  -0.24220064    2.2693952    35753.511 
 2030000   0.80041434   -0.2298288    2.2676329    35748.472 
 2040000   0.80379425  -0.23447348    2.2733653     35795.13 
 2050000   0.80089907  -0.23735569    2.2454822    35558.803 
 2060000   0.80142812    -0.230312    2.2451949    35585.395 
 2070000   0.80238401   -0.2321058    2.2642177    35659.758 
 2080000   0.80493615  -0.24041796    2.2557023    35633.575 
 2090000    0.8000254  -0.23559759    2.2429355    35576.399 
 2100000   0.79942728  -0.23475403    2.2410236    35643.585 
 2110000   0.80114778  -0.24204073    2.2719189    35783.419 
 2120000   0.80259826    -0.232586    2.2501943    35636.992 
 2130000   0.79798203   -0.2299415    2.2554444    35766.748 
 2140000   0.79769877  -0.24110454    2.2448234    35584.958 
 2150000   0.80002564  -0.24163552    2.2395911    35599.113 
 2160000   0.80203772  -0.23354285    2.2657016    35702.014 
 2170000   0.79523492  -0.24498815    2.2230311    35488.538 
 2180000   0.80213328  -0.23084434    2.2488339    35600.466 
 2190000   0.79349368  -0.24008448    2.2232641    35528.859 
 2200000   0.80083698  -0.23772812    2.2257076    35523.821 
 2210000   0.80102981  -0.24131455    2.2395755    35523.495 
 2220000   0.80173575  -0.24231922    2.2460219     35623.63 
 2230000   0.80168028  -0.24145158    2.2371615    35552.052 
 2240000   0.80124167  -0.24345487    2.2442725    35622.448 
 2250000   0.79644243  -0.23938235    2.2286138     35607.31 
 2260000   0.80732047  -0.24502589     2.241998    35540.263 
 2270000   0.80017703  -0.23766371    2.2408156    35592.783 
 2280000   0.79851078  -0.25065997    2.2449977     35605.78 
 2290000   0.80284686  -0.24296639    2.2442396    35611.268 
 2300000   0.79761271  -0.24312317    2.2298653    35579.996 
 2310000   0.79797348  -0.23851926    2.2338156    35591.502 
 2320000   0.79556835  -0.23931873    2.2304187    35570.241 
 2330000   0.80383041  -0.24769813     2.226729    35504.792 
 2340000   0.80082763  -0.23494533    2.2350339    35509.271 
 2350000   0.80046207   -0.2348641    2.2447987    35606.433 
 2360000   0.79776119  -0.23737646    2.2298557    35578.575 
 2370000   0.80032474  -0.23354669    2.2326411    35504.109 
 2380000   0.79774786  -0.23608127    2.2199547    35508.994 
 2390000   0.79744652  -0.23795128    2.2426239    35644.254 
 2400000   0.79200817  -0.22810124    2.2259909    35582.693 
 2410000   0.80001986  -0.24591358    2.2360737    35605.064 
 2420000   0.80108554  -0.25051481    2.2370427    35547.406 
 2430000   0.80174761   -0.2444059    2.2237524    35476.921 
 2440000   0.80166582  -0.23482677    2.2539019    35661.666 
 2450000   0.80015809  -0.23877893    2.2344778    35613.784 
 2460000   0.80003459  -0.23503163    2.2389083     35564.76 
 2470000   0.80118653  -0.24426191    2.2507381    35702.702 
 2480000   0.79614124   -0.2393801    2.2470771    35676.809 
 2490000   0.79822931  -0.23807848    2.2374887    35636.854 
 2500000   0.79791147   -0.2383143    2.2278854     35519.54 
 2510000    0.7984184  -0.24221127    2.2197989    35525.574 
 2520000    0.7946618  -0.24158667    2.2275804    35611.932 
 2530000   0.80230691  -0.23454002    2.2402722    35587.745 
 2540000   0.79968547  -0.23372432    2.2454405    35625.519 
 2550000    0.8009157  -0.23279246     2.218963    35471.637 
 2560000   0.79936377  -0.24336854    2.2411905    35553.235 
 2570000   0.79867906   -0.2461519    2.2464756    35686.438 
 2580000   0.80333624   -0.2402506    2.2421077    35577.281 
 2590000   0.79781761  -0.23814312    2.2246093    35531.469 
 2600000   0.80478343  -0.23849003    2.2567617    35693.442 
 2610000   0.81091029   -0.2379969    2.2449727    35551.039 
 2620000   0.79817759   -0.2489129    2.2252722    35539.613 
 2630000   0.80757218  -0.24237074    2.2412228    35527.959 
 2640000   0.79993795  -0.24742681    2.2308422    35544.271 
 2650000   0.80444659  -0.23740008    2.2461118    35621.671 
 2660000   0.79394651  -0.24067382    2.2266072    35505.326 
 2670000   0.79715744   -0.2428586    2.2394565     35599.88 
 2680000   0.80218405  -0.23576079    2.2474219    35596.771 
 2690000   0.80015723  -0.24220922    2.2352282    35549.052 
 2700000   0.80254829  -0.23941515    2.2352206    35537.175 
 2710000    0.7999915   -0.2446717    2.2396694    35611.628 
 2720000   0.79609651   -0.2381084    2.2297199    35530.185 
 2730000   0.80157742  -0.24317881    2.2266131    35553.554 
 2740000   0.79836376  -0.24527552    2.2281238    35520.841 
 2750000   0.79240506  -0.24263018    2.2198541    35528.805 
 2760000   0.79709681    -0.231866    2.2306941     35526.04 
 2770000   0.79967892  -0.24965872      2.22534    35439.524 
 2780000   0.80424819  -0.23541887    2.2310027    35511.275 
 2790000   0.79581191  -0.24235991    2.2255381    35605.076 
 2800000    0.8028173  -0.24270152    2.2389233    35569.427 
 2810000   0.79543902  -0.24379791    2.2155912    35492.692 
 2820000    0.8023057  -0.23663838     2.247101    35630.533 
 2830000   0.79807329  -0.24005718    2.2049771    35389.977 
 2840000   0.80626964  -0.24567488    2.2369796    35530.105 
 2850000   0.79903961  -0.24535345    2.2157907    35451.512 
 2860000   0.79864348  -0.23841932    2.2070283     35391.26 
 2870000   0.80619951  -0.23727618    2.2362006     35508.03 
 2880000   0.80273209  -0.24208022    2.2339875    35541.934 
 2890000   0.79657558  -0.23963716    2.2376163    35660.326 
 2900000   0.79678122  -0.23832105    2.2297567    35545.824 
 2910000   0.80147386  -0.23709374    2.2413597    35583.239 
 2920000   0.79992721   -0.2328103    2.2355576     35585.86 
 2930000   0.79818776  -0.23697883    2.2179619    35491.024 
 2940000   0.79867272  -0.24233013    2.2270376    35558.293 
 2950000   0.80686195  -0.23147645    2.2576453    35642.379 
 2960000   0.79918912   -0.2427544     2.229547    35584.497 
 2970000   0.80224794  -0.23444505    2.2456216     35609.31 
 2980000   0.80160194  -0.24116004    2.2426697    35616.538 
 2990000   0.80392834  -0.24196602    2.2473496    35652.028 
 3000000   0.80094584  -0.23770575    2.2274432    35590.391 
 3010000   0.79854275  -0.24288486    2.2120687    35444.143 
 3020000   0.80151622  -0.23089909    2.2256254    35504.613 
 3030000   0.80752487  -0.23066059    2.2666349    35724.416 
 3040000   0.79882331  -0.24833611    2.2528621     35698.68 
 3050000    0.8008962  -0.24137293    2.2166216    35434.047 
 3060000   0.79089692  -0.22423681    2.2330112    35596.812 
 3070000   0.79809436  -0.23869479    2.2388977    35655.562 
 3080000   0.79632121  -0.24203327    2.2337661    35576.634 
 3090000   0.79983876  -0.23495915    2.2364506    35611.108 
 3100000   0.80921474  -0.23975119    2.2548515    35556.216 
 3110000   0.80140642  -0.23913704    2.2387128      35554.7 
 3120000    0.8087904  -0.24037435    2.2366385    35464.962 
 3130000    0.8021308  -0.24108358    2.2344758    35570.055 
 3140000   0.79706862  -0.24388345    2.2351091    35587.802 
 3150000   0.79588832  -0.23169805    2.2256954    35481.548 
 3160000   0.79931854  -0.24805944     2.213336    35435.634 
 3170000   0.79875436  -0.23728969    2.2367501        35539 
 3180000   0.80038053   -0.2407472    2.2243089    35500.584 
 3190000   0.80465304  -0.23859833    2.2265395     35465.38 
 3200000     0.804885   -0.2361506    2.2431506    35515.572 
 3210000   0.79924691  -0.23521898     2.233954    35532.819 
 3220000   0.80541296  -0.23607637    2.2294371    35446.583 
 3230000   0.79917307  -0.23654917    2.2310087    35578.163 
 3240000   0.80415963  -0.23984338    2.2290578    35507.101 
 3250000   0.79888494  -0.23366212    2.2443686    35625.442 
 3260000   0.80107242  -0.23787943    2.2372636    35603.403 
 3270000   0.80025171  -0.24569818    2.2391999    35587.956 
 3280000   0.79937923  -0.23554455    2.2252319    35510.214 
 3290000   0.79819947  -0.24264186    2.2102949    35412.163 
 3300000   0.79584451  -0.23354731    2.2144281    35500.233 
 3310000   0.80317909  -0.23410972    2.2304809    35489.398 
 3320000   0.80240156  -0.23163012    2.2310577    35553.929 
 3330000    0.8002836  -0.23570819    2.2259909    35507.651 
 3340000   0.80239228  -0.24436138    2.2518075    35640.115 
 3350000   0.79836938  -0.23628155    2.2164105    35447.427 
 3360000   0.79522718  -0.24127198    2.2312402     35606.44 
 3370000    0.7998127  -0.24375073    2.2466935    35665.138 
 3380000   0.80114649  -0.24138255    2.2210678    35450.379 
 3390000     0.801857  -0.23732771    2.2210893     35467.58 
 3400000   0.79595871  -0.23873977    2.2218512    35498.728 
 3410000   0.79861047  -0.24080403    2.2154678    35472.712 
 3420000   0.80173171  -0.24794282    2.2479195    35629.557 
 3430000    0.7991452  -0.23801159    2.2068522    35390.921 
 3440000   0.79693574  -0.23507405    2.2317671    35598.776 
 3450000   0.79686872   -0.2433901    2.2278484    35564.067 
 3460000   0.80353445  -0.23880949    2.2278816    35502.375 
 3470000   0.79763004  -0.23612091     2.213436    35462.041 
 3480000   0.80516069  -0.23622958    2.2440428    35610.313 
 3490000   0.80216459  -0.23750757    2.2256703    35507.008 
 3500000   0.80234112  -0.22978276    2.2266075    35504.563 
 3510000   0.79880647  -0.23968175    2.2368112    35627.948 
 3520000   0.79699175  -0.23688298    2.2392447    35708.901 
 3530000   0.80026364  -0.24569386    2.2244337    35525.336 
 3540000   0.79970116  -0.24066965    2.2002797    35361.618 
 3550000   0.79661822  -0.24052403     2.216748    35441.287 
 3560000   0.80404613  -0.23905781    2.2324641    35498.052 
 3570000   0.79340733  -0.23579501    2.2368152    35631.655 
 3580000   0.80020185  -0.23438411    2.2348546    35547.969 
 3590000   0.80679264  -0.24321439    2.2517503    35617.521 
 3600000   0.79547643  -0.23980193    2.2192439    35486.681 
 3610000    0.7954942  -0.24731581    2.2150407    35452.667 
 3620000    0.8000149  -0.24024083    2.2273394    35525.255 
 3630000   0.80293414  -0.25004718    2.2248429    35451.117 
 3640000   0.80309174  -0.23996453    2.2337239    35516.587 
 3650000   0.79758957  -0.23507874    2.2129412    35408.995 
 3660000   0.79838219   -0.2377286    2.2210194     35436.31 
 3670000   0.80166681  -0.23060066    2.2284008    35499.994 
 3680000   0.79353765  -0.23761291    2.2129043    35506.466 
 3690000   0.80323257   -0.2353727    2.2202346    35459.579 
 3700000   0.79973417  -0.23960177    2.2271376    35535.835 
 3710000   0.80468233  -0.23585246    2.2058674    35321.082 
 3720000   0.79187697  -0.23588018    2.1970378    35403.292 
 3730000   0.81303844   -0.2320376    2.2298638    35457.225 
 3740000   0.80294548  -0.25243454    2.2139756    35413.984 
 3750000   0.79998514  -0.24120024    2.2271184    35537.275 
 3760000   0.80045779  -0.23930499    2.2313277    35534.367 
 3770000   0.80111832  -0.23383309    2.2361169    35534.165 
 3780000   0.80197756  -0.24140138    2.2252258    35515.832 
 3790000   0.79475007  -0.24303279    2.2216275    35528.159 
 3800000   0.79373308  -0.23367173    2.2159322    35480.938 
 3810000   0.80112141  -0.24307662    2.2145488    35475.321 
 3820000   0.79700875  -0.23395256    2.2033137     35382.66 
 3830000   0.79763855  -0.24638922    2.2058596     35437.78 
 3840000   0.80205025  -0.23767666    2.2300049    35530.444 
 3850000   0.79754592  -0.24076698     2.218889    35482.761 
 3860000   0.80565917  -0.24103805    2.2308386    35492.737 
 3870000   0.79820978  -0.24597362    2.2254721    35525.452 
 3880000    0.8036025  -0.23439618    2.2362371    35553.162 
 3890000   0.80552355  -0.23229239    2.2286665    35466.032 
 3900000   0.79387326  -0.23906958    2.2138137    35503.332 
 3910000   0.80112403  -0.24163989    2.2231009    35475.744 
 3920000   0.80146027  -0.24603566    2.2288921    35506.894 
 3930000   0.79770351  -0.24272245    2.2023395    35360.517 
 3940000   0.79932328   -0.2388479    2.2286663    35518.695 
 3950000   0.79407902  -0.24176005    2.2159126    35507.368 
 3960000    0.7942786  -0.24189707    2.2069797    35441.509 
 3970000   0.79999533  -0.24821909    2.2304573    35559.736 
 3980000   0.80235302  -0.24260643    2.2207401    35530.821 
 3990000   0.80425571  -0.23614685    2.2182527    35430.625 
 4000000   0.80048371  -0.24236038    2.2108668     35441.75 
 4010000   0.80074562   -0.2361148    2.2169116    35455.628 
 4020000   0.80419029  -0.23349378    2.2361263    35529.551 
 4030000   0.79819689   -0.2429464     2.188445    35316.488 
 4040000   0.80031416   -0.2347094    2.2177682    35440.434 
 4050000    0.8028637  -0.23821772    2.2256675    35484.715 
 4060000   0.79817819  -0.24236491    2.2217954    35508.302 
 4070000   0.80457985  -0.24064684    2.2150817    35433.534 
 4080000   0.79806089  -0.23211258    2.2337905     35625.32 
 4090000   0.79906381  -0.23635661    2.2181643    35512.294 
 4100000   0.80070911  -0.23200298    2.2212021    35482.631 
 4110000   0.79222729  -0.23787909    2.1953546    35374.257 
 4120000   0.79440051  -0.24273902    2.2042955    35462.875 
 4130000   0.80269068  -0.23964255    2.2069957    35388.813 
 4140000   0.79363599  -0.23297154    2.2177378    35531.312 
 4150000   0.79789113  -0.23911855    2.1974132    35409.199 
 4160000   0.80415863  -0.23061584    2.2211313    35485.655 
 4170000   0.80080689  -0.24535931    2.2222094    35479.501 
 4180000   0.79761684   -0.2387737    2.2300731    35592.515 
 4190000   0.80567163  -0.22836254    2.2342604    35558.955 
 4200000   0.80320659  -0.23673674    2.2365802    35628.031 
 4210000   0.79979712  -0.23621961    2.2104958    35452.289 
 4220000   0.80176465  -0.23043765    2.2176855    35459.186 
 4230000   0.79507084  -0.24639853    2.1960024     35377.28 
 4240000   0.80549766  -0.24478304    2.2180038    35439.365 
 4250000   0.80169488  -0.24204544    2.2115047    35431.833 
 4260000    0.7973911  -0.24841193    2.2073801     35473.88 
 4270000   0.79474374  -0.23747128     2.208548    35512.374 
 4280000   0.79793991  -0.24418442    2.2160438    35490.722 
 4290000   0.79548557  -0.23664718     2.215218    35500.058 
 4300000   0.79672417  -0.24165776    2.1887328    35330.256 
 4310000   0.79271683  -0.24072825    2.1904564    35358.996 
 4320000   0.80045453  -0.25261911    2.2377314     35534.24 
 4330000   0.79435419  -0.23392127     2.198566    35362.338 
 4340000   0.80133115    -0.238764    2.1999292    35397.174 
 4350000   0.80331158  -0.24580536    2.2090337    35392.024 
 4360000   0.80225937  -0.25103901    2.2120495    35503.759 
 4370000   0.80230199  -0.24286201    2.2225552    35494.459 
 4380000   0.79696361  -0.24072877    2.2057571    35426.689 
 4390000   0.79827083  -0.24380968    2.2077482     35408.03 
 4400000     0.800305  -0.23444684     2.186462    35278.407 
 4410000   0.79538838  -0.23099559    2.2122964     35536.01 
 4420000   0.80260061  -0.23606861    2.1862798    35241.546 
 4430000   0.79885049   -0.2464797    2.2016508    35370.077 
 4440000   0.79364847  -0.23618274     2.208014    35454.032 
 4450000   0.80610237  -0.24125958    2.2228961    35438.982 
 4460000   0.80062389  -0.24206369    2.2125335    35436.447 
 4470000   0.79365626  -0.24751851    2.2088849    35518.317 
 4480000   0.79949789  -0.23359475      2.20954    35411.011 
 4490000   0.80305801  -0.24048879    2.2216407    35482.473 
 4500000   0.80063151   -0.2373639    2.2359294    35584.911 
 4510000   0.80672557  -0.24334103    2.2157918    35386.357 
 4520000   0.80439525  -0.24309623    2.2064114     35398.45 
 4530000   0.80695086  -0.23881079    2.2227731      35516.7 
 4540000   0.79632763  -0.23759504    2.2056124    35397.642 
 4550000   0.80184168  -0.23855994    2.2133822    35426.377 
 4560000   0.79746092  -0.23441225     2.191852    35346.173 
 4570000   0.79210423  -0.23311643    2.2038771     35447.96 
 4580000   0.79868023  -0.23692989    2.2138518     35510.43 
 4590000   0.80358699  -0.23868188    2.2253332    35464.988 
 4600000   0.80253639  -0.23850271    2.2226415     35498.32 
 4610000    0.8006084  -0.24724234    2.2160341    35489.188 
 4620000   0.80111977  -0.23685102    2.2018189     35361.73 
 4630000   0.80065531  -0.24080436    2.1835429    35298.947 
 4640000   0.80092339  -0.23726588    2.2238001    35487.106 
 4650000   0.79785415  -0.23959443    2.2129802     35432.18 
 4660000   0.79853582  -0.23819424    2.2062483      35431.7 
 4670000   0.79771435  -0.24391184    2.2040143    35408.352 
 4680000   0.80101227  -0.24169135    2.1945733    35355.764 
 4690000   0.80064819  -0.23052563    2.2113557    35448.954 
 4700000   0.79515267  -0.23771756    2.2039264     35409.59 
 4710000   0.80263095  -0.23932804    2.2184645    35442.396 
 4720000   0.80324093  -0.25069577    2.2027527    35342.302 
 4730000   0.79657296  -0.24233776    2.1849044    35314.596 
 4740000   0.79401952  -0.23398517    2.2042707    35425.329 
 4750000   0.80270693  -0.23807802    2.2179905    35475.971 
 4760000   0.80203867  -0.24545363    2.2073771    35432.341 
 4770000   0.79023593  -0.23846281    2.1716294    35279.844 
 4780000   0.79602253  -0.23920632     2.191067    35340.156 
 4790000   0.79641885   -0.2364251    2.2002333    35383.855 
 4800000   0.80415729   -0.2290246    2.2173212    35479.689 
 4810000   0.80227524  -0.24726159    2.1967122    35363.484 
 4820000    0.8047383  -0.24355078    2.2035259    35388.573 
 4830000   0.80439039  -0.23501191    2.2011305    35371.907 
 4840000   0.79573726  -0.23986925    2.1885792    35377.948 
 4850000   0.80703469  -0.23525098    2.2270723    35480.912 
 4860000   0.80105702  -0.24027548    2.2149456    35496.761 
 4870000   0.80185773  -0.22689786    2.2217972    35510.608 
 4880000   0.79416139  -0.23988337    2.2073419    35428.491 
 4890000   0.80299415  -0.24303816    2.2183165      35503.3 
 4900000   0.79451356  -0.23216698    2.2004327    35448.296 
 4910000   0.80004742  -0.24597858    2.2076568    35453.076 
 4920000   0.78916265   -0.2352903    2.1957727    35405.728 
 4930000   0.80031242  -0.23660279     2.204932    35431.703 
 4940000   0.79594988  -0.23377523    2.2186461    35501.695 
 4950000   0.80404673  -0.24044398     2.205761    35387.176 
 4960000   0.80519002   -0.2474315     2.210488     35389.48 
 4970000   0.80388665  -0.25025195    2.2213532     35475.41 
 4980000   0.79467982  -0.24415619    2.1969623    35476.352 
 4990000   0.80525306  -0.24665557    2.1993454     35343.49 
 5000000   0.80380505  -0.24591804    2.2211628    35444.705 
 5010000   0.80151222  -0.23657821    2.1975375    35394.805 
 5020000   0.79687863  -0.23806114    2.2096058    35502.791 
 5030000   0.80198914  -0.24000828    2.2211049    35485.454 
 5040000   0.79736351  -0.24410635    2.2098475     35471.66 
 5050000   0.80121882  -0.23485542    2.2074524    35424.925 
 5060000   0.80213033   -0.2405746    2.2033527    35382.066 
 5070000   0.80248286  -0.23910391    2.1969381    35322.406 
 5080000   0.79981549  -0.23765767    2.1950983    35368.117 
 5090000   0.80045441   -0.2378323    2.1995124    35342.412 
 5100000   0.79906658  -0.24132147    2.1967143     35346.56 
 5110000   0.79985183  -0.23544956    2.1900073    35351.775 
 5120000     0.799522  -0.24012096    2.1996052    35336.919 
 5130000    0.8014275  -0.25444102      2.21096    35434.066 
 5140000   0.79854137  -0.23645969    2.2062578    35420.309 
 5150000   0.79851415  -0.23525772    2.1835842    35266.114 
 5160000   0.80526716  -0.24851262    2.2046119    35352.307 
 5170000   0.79791091  -0.24314194    2.1968695    35315.445 
 5180000   0.79657239  -0.24169913    2.1935027    35378.189 
 5190000   0.79707957  -0.24246811    2.1929975     35373.82 
 5200000   0.79738908  -0.24037592     2.186011    35289.345 
 5210000   0.79764195  -0.23416747    2.1992238    35394.535 
 5220000   0.79801476  -0.24264292    2.1889866    35363.397 
 5230000   0.80542922  -0.24610128    2.2050759    35386.883 
 5240000    0.8016707  -0.24542122    2.1966733    35351.784 
 5250000   0.79824355  -0.24724526    2.1986102    35359.886 
 5260000   0.80520669  -0.24399911    2.2234728    35518.395 
 5270000   0.80447643  -0.23831578     2.225694    35486.183 
 5280000   0.79954891  -0.24409111    2.2006072    35324.036 
 5290000   0.79340681  -0.23683465    2.1880053    35375.503 
 5300000   0.80579037  -0.24438822    2.2027711    35371.399 
 5310000   0.79793318  -0.24493566    2.1908599    35338.377 
 5320000   0.79904535  -0.23779916    2.2045113    35409.835 
 5330000   0.80626917  -0.25177292    2.2049049     35357.56 
 5340000   0.79468191  -0.24740542    2.1889215    35318.992 
 5350000   0.80111224   -0.2385487    2.1972514    35327.083 
 5360000   0.79790394  -0.24346518    2.1988041    35395.194 
 5370000   0.79076062  -0.24288109    2.1920454    35439.539 
 5380000   0.79436173  -0.24790773    2.1708149    35209.718 
 5390000   0.80079153  -0.24084602    2.2037592    35426.438 
 5400000   0.80748789  -0.24546716    2.2287192    35511.222 
 5410000   0.80002038  -0.23928026    2.2058195    35402.152 
 5420000   0.80190748  -0.23527326    2.1850295    35270.648 
 5430000   0.79561111  -0.24903451    2.1779011    35337.602 
 5440000   0.79728903  -0.24508035    2.2130319    35499.555 
 5450000    0.8030436  -0.24102855    2.2002429    35409.586 
 5460000   0.80858222  -0.24332802    2.2123012    35401.424 
 5470000   0.80023426  -0.24358502     2.194411    35352.756 
 5480000   0.79753531  -0.24452199    2.1922178    35446.246 
 5490000   0.80199331  -0.23816656     2.199401    35359.972 
 5500000   0.80653116    -0.248607    2.2201266     35458.95 
 5510000   0.80202699  -0.24090054     2.220256    35547.347 
 5520000   0.80208841   -0.2494968    2.1928969    35322.456 
 5530000   0.80181852  -0.24768565    2.2011172    35383.334 
 5540000   0.79606576  -0.24111777    2.1851148    35369.811 
 5550000   0.80112279  -0.23708597    2.2037517    35380.699 
 5560000   0.79627439  -0.23024096    2.1967886    35391.069 
 5570000   0.80261549   -0.2315121     2.202496    35374.338 
 5580000   0.80131975  -0.24838929    2.1882988    35315.815 
 5590000   0.80034819  -0.24501128    2.1988689    35373.683 
 5600000    0.7969482  -0.23973848    2.1846205    35349.884 
 5610000   0.80158856   -0.2372938    2.2012416    35391.055 
 5620000   0.79939521  -0.22813819    2.1823779    35337.178 
 5630000   0.80606908  -0.24188053    2.2015206    35343.792 
 5640000   0.80377231  -0.23587127    2.2179467    35479.869 
 5650000   0.80012325  -0.24517776    2.2010951     35382.12 
 5660000   0.80148375  -0.23921042    2.1903053    35305.803 
 5670000   0.80630376  -0.24313946    2.2061342    35413.336 
 5680000   0.80357063  -0.23735249    2.1983525     35359.93 
 5690000   0.80433602    -0.240872    2.1891433    35327.763 
 5700000   0.79547038  -0.23865394    2.1817463    35288.333 
 5710000   0.80417233  -0.23325312    2.2129061    35463.366 
 5720000   0.80086359  -0.24131168    2.1851228    35354.827 
 5730000   0.79933625  -0.23650195    2.1975227    35409.548 
 5740000   0.79695521  -0.25087481    2.1825673    35337.091 
 5750000    0.7980398    -0.235166    2.1954497    35378.574 
 5760000   0.79545605  -0.23919481    2.1728152    35293.464 
 5770000   0.79678778   -0.2393369    2.1896565    35381.382 
 5780000   0.79754138   -0.2349625    2.2282286    35567.976 
 5790000     0.803104  -0.23850082    2.2132979    35404.304 
 5800000   0.80512423  -0.23733604    2.1883769    35313.288 
 5810000   0.78901877  -0.23000264    2.1914714    35438.616 
 5820000   0.79953946  -0.23311838    2.1818659    35340.586 
 5830000   0.79700266  -0.24524902    2.2058255     35485.51 
 5840000   0.80719142  -0.24413119    2.1898096    35311.245 
 5850000   0.79678824  -0.23052712    2.1758559    35300.706 
 5860000   0.79460718  -0.24231767    2.1846348    35359.553 
 5870000   0.80040234  -0.24198354    2.1932195     35351.06 
 5880000   0.80737404  -0.23257068     2.209872    35375.768 
 5890000    0.7988149  -0.23521678    2.2098708    35494.872 
 5900000   0.80073313  -0.23736958    2.1931113    35340.285 
 5910000   0.79812594  -0.23814049    2.1966486    35405.539 
 5920000    0.8056653  -0.24144714    2.2094709    35407.836 
 5930000   0.79637687  -0.24311358    2.1802826    35255.577 
 5940000   0.80322061   -0.2417679     2.209007    35440.311 
 5950000   0.80792464    -0.234536    2.1982764    35308.069 
 5960000   0.79566679  -0.24983039    2.1797062    35363.549 
 5970000   0.80180156  -0.23834849    2.1658778    35175.943 
 5980000   0.80484934  -0.24370742    2.1877792    35301.856 
 5990000    0.7985354  -0.24402893    2.1726833    35282.751 
 6000000   0.80611084  -0.24352211     2.208663    35387.054 
 6010000   0.79738048   -0.2450522     2.188305    35345.219 
 6020000    0.7957802  -0.24329752    2.1863498    35404.431 
 6030000   0.79973312  -0.24615117    2.1774804    35282.448 
 6040000   0.79492303  -0.24325921    2.1919558    35392.261 
 6050000   0.80217318  -0.24431631    2.2153835    35503.531 
 6060000   0.80312527  -0.24116468    2.2108036    35425.717 
 6070000   0.79811289  -0.22702569    2.2017991    35432.827 
 6080000   0.80160031  -0.23484773    2.1979109    35400.761 
 6090000   0.79951178  -0.24914199    2.2071024    35490.036 
 6100000   0.79011328  -0.23319296    2.1762731    35330.717 
 6110000   0.79968221  -0.24006402    2.1935463    35349.892 
 6120000   0.80153424   -0.2458142    2.1962621      35454.3 
 6130000    0.8049205  -0.23937641    2.2119326    35471.646 
 6140000   0.80451372  -0.24546486    2.1990674    35377.115 
 6150000   0.80384005  -0.24312007    2.2065909    35390.821 
 6160000   0.80268444  -0.24706601    2.1946517    35388.595 
 6170000   0.79254245  -0.23234366    2.1822958    35403.961 
 6180000    0.7967149  -0.23231886    2.1991625    35438.636 
 6190000   0.80383926  -0.23705497     2.186811     35317.94 
 6200000   0.80002856   -0.2415079    2.1912749    35367.586 
 6210000    0.7981144  -0.22923617    2.2007679    35461.768 
 6220000   0.79092387   -0.2371373    2.1813209    35434.004 
 6230000   0.79863552  -0.24941082    2.1975541    35406.209 
 6240000    0.7972847  -0.24050656    2.1952206    35344.231 
 6250000   0.79788767  -0.24327251    2.1945524    35462.099 
 6260000   0.79787213  -0.23066558    2.1957347    35367.385 
 6270000    0.8010784  -0.23910664    2.2065647    35457.143 
 6280000   0.80015881  -0.23498384     2.193354    35332.438 
 6290000   0.80274138  -0.24061557    2.1989699    35403.947 
 6300000   0.80617666  -0.24281852    2.2058402    35372.611 
 6310000   0.79969802  -0.24868856    2.1676979     35208.09 
 6320000   0.79912067  -0.24724092    2.1784997    35280.793 
 6330000   0.79791222  -0.24564525    2.1872352    35340.054 
 6340000   0.79744957  -0.23980954    2.1866963     35355.98 
 6350000   0.80391212  -0.24106543    2.2165132    35448.973 
 6360000   0.80287912  -0.24180077     2.209915    35480.468 
 6370000   0.79735853  -0.23802403    2.1826469    35296.089 
 6380000   0.79834001  -0.24906336    2.1934938    35316.061 
 6390000   0.79623967   -0.2334612    2.1877947    35366.004 
 6400000   0.79865531  -0.23484158    2.1785221    35316.983 
 6410000   0.79593591  -0.23422673    2.1882022    35331.207 
 6420000   0.80494598  -0.23658937    2.1795564    35240.961 
 6430000   0.80520941  -0.23658682    2.2116421    35420.398 
 6440000    0.7972209  -0.24049166    2.2002183    35405.382 
 6450000    0.7992543  -0.23580778    2.1819741    35285.232 
 6460000   0.79486532  -0.23493293    2.1794396    35344.788 
 6470000   0.80153499  -0.23950036    2.1871868    35295.144 
 6480000   0.80223489   -0.2450623    2.1911478     35378.31 
 6490000   0.80304108  -0.24727201     2.173793    35240.226 
 6500000   0.79640935  -0.24585051    2.1897891    35412.499 
 6510000   0.79671821  -0.24600981    2.1869137    35359.712 
 6520000   0.79895103  -0.23365081    2.2061527    35485.233 
 6530000   0.80812201   -0.2343567     2.205879    35403.666 
 6540000   0.79653791  -0.24113632    2.1958007    35399.168 
 6550000   0.79796127  -0.23826189    2.1824824    35320.007 
 6560000   0.79940574  -0.24333003    2.1948495    35419.577 
 6570000    0.7993835  -0.24176464    2.1966327    35394.913 
 6580000    0.7913065  -0.24031672    2.1918698    35448.244 
 6590000   0.79443184  -0.24100346    2.1800204    35326.043 
 6600000   0.79756757  -0.24327652    2.1864671    35384.497 
 6610000   0.80054366  -0.23958068    2.1933817    35389.571 
 6620000   0.80328807  -0.24315306    2.1827991    35290.627 
 6630000   0.79479359  -0.23721188    2.1863329    35368.366 
 6640000   0.80686894  -0.24572493     2.187941    35259.659 
 6650000   0.80476255  -0.24061087      2.21007    35438.518 
 6660000   0.79549712   -0.2411121    2.1924774    35448.214 
 6670000   0.80318053  -0.23351116    2.2045543    35396.707 
 6680000     0.796539  -0.23620072    2.1916426    35418.104 
 6690000   0.80477132  -0.24438988    2.1977084    35351.285 
 6700000   0.80014401  -0.24289394    2.2002135    35398.676 
 6710000   0.80083017   -0.2406276    2.2048455     35430.23 
 6720000   0.80224666  -0.24780686    2.1873707    35327.211 
 6730000   0.79594996  -0.24791086    2.1967114    35384.679 
 6740000    0.8037591  -0.24109391    2.2064747    35448.094 
 6750000   0.80125592  -0.23340557    2.1935239    35401.384 
 6760000   0.80176683  -0.24841039    2.2012865    35379.323 
 6770000    0.8050794  -0.23642596    2.2082505    35413.064 
 6780000   0.80179308   -0.2398167    2.1899393    35316.693 
 6790000   0.80228219  -0.23705174    2.1978746    35324.779 
 6800000   0.79831439  -0.23157427    2.1778489     35307.91 
 6810000   0.80051633  -0.24266829    2.2001067    35406.521 
 6820000   0.79764216   -0.2407513    2.1773528     35311.68 
 6830000   0.80118425  -0.23717846    2.2018796    35402.658 
 6840000   0.80441048  -0.24369457    2.1971749    35392.222 
 6850000   0.79641935  -0.23977924    2.1802345    35345.981 
 6860000   0.80110394  -0.24920834    2.1912115    35352.019 
 6870000   0.79911875   -0.2461526    2.2011436    35407.296 
 6880000    0.7992488  -0.24196996    2.1947001    35396.415 
 6890000   0.80345263  -0.23535166    2.1955482    35377.162 
 6900000   0.80728644  -0.23719269    2.1919462    35335.442 
 6910000   0.80203572  -0.24093255    2.2012042    35397.461 
 6920000   0.79151644   -0.2448483    2.1778473    35343.945 
 6930000   0.80163515  -0.23907892    2.1932006    35357.153 
 6940000   0.79894254  -0.22920767    2.1929264    35361.521 
 6950000   0.80459807  -0.24367629    2.2175898    35437.571 
 6960000   0.79877021  -0.24370908    2.2039043    35443.456 
 6970000    0.8055893  -0.24091584    2.2073811    35401.748 
 6980000   0.80626134  -0.24795644    2.2065083    35391.782 
 6990000   0.79903946  -0.24629717    2.1872205    35345.827 
 7000000   0.79771119  -0.24127167    2.1838965    35342.233 
Loop time of 4289.64 on 216 procs for 5000000 steps with 28900 atoms

Performance: 503539.156 tau/day, 1165.600 timesteps/s
99.9% CPU use with 216 MPI tasks x 1 OpenMP threads

MPI task timing breakdown:
Section |  min time  |  avg time  |  max time  |%varavg| %total
---------------------------------------------------------------
Pair    | 431.82     | 481.88     | 552.53     | 116.1 | 11.23
Bond    | 8.0696     | 9.4872     | 11.788     |  21.2 |  0.22
Neigh   | 615.84     | 643.91     | 677.73     |  51.8 | 15.01
Comm    | 941.41     | 1067.2     | 1164.7     | 140.0 | 24.88
Output  | 1.9408     | 1.9458     | 1.9836     |   0.2 |  0.05
Modify  | 1768.1     | 1853.1     | 1957.7     |  80.7 | 43.20
Other   |            | 232.1      |            |       |  5.41

Nlocal:    133.796 ave 222 max 104 min
Histogram: 8 83 83 21 6 6 2 1 4 2
Nghost:    976.843 ave 1238 max 876 min
Histogram: 30 61 52 27 17 16 5 2 3 3
Neighs:    4866.86 ave 10759 max 3349 min
Histogram: 34 109 41 12 8 5 1 2 2 2

Total # of neighbors = 1051242
Ave neighs/atom = 36.3752
Ave special neighs/atom = 0.602076
Neighbor list builds = 693661
Dangerous builds = 26
System init for write_restart ...
Setting atom values ...
  900 settings made for charge
Setting atom values ...
  900 settings made for charge
Setting atom values ...
  3800 settings made for charge
Setting atom values ...
  1900 settings made for charge
System init for write_data ...
PPPM initialization ...
  using 12-bit tables for long-range coulomb (src/kspace.cpp:332)
  G vector (1/distance) = 1.17992
  grid = 100 100 100
  stencil order = 5
  estimated absolute RMS force accuracy = 0.000122379
  estimated relative force accuracy = 0.000122379
  using double precision FFTW3
  3d grid and FFT values/proc = 12167 5400
WARNING: Neighbor exclusions used with KSpace solver may give inconsistent Coulombic energies (src/neighbor.cpp:486)
Neighbor list info ...
  update every 1 steps, delay 0 steps, check yes
  max neighbors/atom: 2000, page size: 100000
  master list distance cutoff = 2.8
  ghost atom cutoff = 2.8
  binsize = 1.4, bins = 24 24 24
  2 neighbor lists, perpetual/occasional/extra = 2 0 0
  (1) pair lj/cut, perpetual
      attributes: half, newton on
      pair build: half/bin/newton
      stencil: half/bin/3d/newton
      bin: standard
  (2) pair coul/long, perpetual, skip from (1)
      attributes: half, newton on
      pair build: skip
      stencil: none
      bin: none
PPPM initialization ...
  using 12-bit tables for long-range coulomb (src/kspace.cpp:332)
  G vector (1/distance) = 1.17992
  grid = 100 100 100
  stencil order = 5
  estimated absolute RMS force accuracy = 0.000122379
  estimated relative force accuracy = 0.000122379
  using double precision FFTW3
  3d grid and FFT values/proc = 12167 5400
WARNING: Neighbor exclusions used with KSpace solver may give inconsistent Coulombic energies (src/neighbor.cpp:486)
Neighbor list info ...
  update every 1 steps, delay 0 steps, check yes
  max neighbors/atom: 2000, page size: 100000
  master list distance cutoff = 2.8
  ghost atom cutoff = 2.8
  binsize = 1.4, bins = 24 24 24
  2 neighbor lists, perpetual/occasional/extra = 2 0 0
  (1) pair lj/cut, perpetual
      attributes: half, newton on
      pair build: half/bin/newton
      stencil: half/bin/3d/newton
      bin: standard
  (2) pair coul/long, perpetual, skip from (1)
      attributes: half, newton on
      pair build: skip
      stencil: none
      bin: none
Setting up Verlet run ...
  Unit style    : lj
  Current step  : 7000000
  Time step     : 0.005
Per MPI rank memory allocation (min/avg/max) = 15.05 | 16.46 | 17.14 Mbytes
Step Temp Press TotEng Volume 
 7000000   0.79771119     1.802255    6.9892992    35342.233 
 7010000   0.79900304    -0.240761    2.5022457    35342.233 
 7020000   0.79888299  -0.29572739    2.3869174    35342.233 
 7030000   0.80206926   -0.1905497    2.3419641    35342.233 
 7040000   0.79825904   -0.1607316    2.3139963    35342.233 
 7050000   0.79022836  -0.20532317    2.2629656    35342.233 
 7060000   0.79295707  -0.26480208    2.2476288    35342.233 
 7070000    0.7987282  -0.18755956    2.2430478    35342.233 
 7080000   0.79761287  -0.20047998      2.22917    35342.233 
 7090000   0.79635757  -0.20302553    2.2022685    35342.233 
 7100000   0.79678068  -0.18575611    2.2019003    35342.233 
 7110000   0.79689769  -0.23091274    2.1966145    35342.233 
 7120000   0.79737198  -0.16344084    2.1693037    35342.233 
 7130000   0.80398151  -0.19546242    2.1678955    35342.233 
 7140000   0.79925692  -0.18524292    2.1641573    35342.233 
 7150000   0.80247248   -0.1865234    2.1558996    35342.233 
 7160000   0.79985899  -0.15439454    2.1426236    35342.233 
 7170000   0.79558172  -0.25077252    2.1326546    35342.233 
 7180000   0.80063514  -0.20207129    2.1555792    35342.233 
 7190000   0.79856594  -0.20714265    2.1271963    35342.233 
 7200000   0.80341419  -0.19889981    2.1409544    35342.233 
 7210000   0.79595905  -0.17286282    2.1113474    35342.233 
 7220000   0.80097835  -0.12957317    2.1138618    35342.233 
 7230000   0.80012184  -0.22774459     2.119108    35342.233 
 7240000   0.80574471  -0.12042646    2.1078871    35342.233 
 7250000   0.80583332  -0.14810026      2.10795    35342.233 
 7260000    0.8043365  -0.13534384    2.0844656    35342.233 
 7270000    0.7965939  -0.20643758    2.0869132    35342.233 
 7280000   0.79543913  -0.21147652    2.0948098    35342.233 
 7290000   0.79668837 -0.097060742    2.0744156    35342.233 
 7300000   0.79818652  -0.13542764    2.0869253    35342.233 
 7310000   0.79641177  -0.14979894    2.0728116    35342.233 
 7320000    0.8039755 -0.059753328     2.085548    35342.233 
 7330000   0.79547474  -0.13445479    2.0738946    35342.233 
 7340000    0.8005182  -0.21736746    2.0800781    35342.233 
 7350000   0.79761608  -0.10681817    2.0863057    35342.233 
 7360000   0.80815412  -0.22174592    2.0856074    35342.233 
 7370000   0.80252438 -0.076184285    2.0744128    35342.233 
 7380000   0.80185263  -0.17011146    2.0790982    35342.233 
 7390000   0.79849241   -0.1506332    2.0759695    35342.233 
 7400000   0.79050784  -0.14435349    2.0564638    35342.233 
 7410000   0.79480665  -0.18458811    2.0615449    35342.233 
 7420000   0.80465035   -0.1647697    2.0662319    35342.233 
 7430000   0.79777745  -0.17340058    2.0813457    35342.233 
 7440000   0.79420908 -0.099964945    2.0466354    35342.233 
 7450000   0.80329364  -0.11766237    2.0690796    35342.233 
 7460000   0.80448302  -0.13205289    2.0628947    35342.233 
 7470000   0.80439916    -0.155275    2.0704369    35342.233 
 7480000   0.80667774  -0.11907728    2.0724894    35342.233 
 7490000   0.79826756  -0.12987597    2.0603533    35342.233 
 7500000   0.80033021 -0.097884768    2.0673444    35342.233 
 7510000   0.80663469  -0.13284187    2.0645743    35342.233 
 7520000   0.79633176  -0.20347874    2.0605329    35342.233 
 7530000   0.80121625   -0.1483689     2.063781    35342.233 
 7540000   0.79433172  -0.13207342     2.047921    35342.233 
 7550000    0.8075999 -0.068285956    2.0500407    35342.233 
 7560000   0.79550889 -0.098890945    2.0395978    35342.233 
 7570000   0.79830949  -0.21673895    2.0427161    35342.233 
 7580000   0.80068516 -0.075067663    2.0391173    35342.233 
 7590000   0.79625041  -0.13493508     2.032191    35342.233 
 7600000   0.79562748  -0.19227617     2.049015    35342.233 
 7610000   0.80427814  -0.10522836     2.044895    35342.233 
 7620000   0.80340489 -0.089648275    2.0507718    35342.233 
 7630000   0.79723042  -0.13466156    2.0495521    35342.233 
 7640000   0.80202308  -0.15741997    2.0573783    35342.233 
 7650000   0.79913009    -0.145475     2.053067    35342.233 
 7660000   0.79672956  -0.18134717    2.0564595    35342.233 
 7670000   0.79868546  -0.13279983    2.0542879    35342.233 
 7680000   0.79645465  -0.16234615    2.0327668    35342.233 
 7690000   0.79844638  -0.16307383    2.0468524    35342.233 
 7700000   0.80141916  -0.21309948    2.0445494    35342.233 
 7710000   0.80213188 -0.067632449    2.0526172    35342.233 
 7720000   0.79782526  -0.12310058    2.0310679    35342.233 
 7730000   0.80358536  -0.10317356    2.0516444    35342.233 
 7740000   0.80264602  -0.11764878    2.0348254    35342.233 
 7750000   0.80151891  -0.13696301    2.0581273    35342.233 
 7760000   0.80145878  -0.17781953     2.047152    35342.233 
 7770000   0.80223493  -0.13779322    2.0466875    35342.233 
 7780000   0.79243659  -0.14871905     2.012376    35342.233 
 7790000   0.80507365  -0.12160362    2.0515285    35342.233 
 7800000   0.80298097  -0.19781693    2.0326105    35342.233 
 7810000   0.80542391  -0.22940719    2.0347723    35342.233 
 7820000   0.79894692   -0.1443423    2.0295776    35342.233 
 7830000   0.79838159 -0.063687229    2.0333209    35342.233 
 7840000   0.79964789  -0.14684561    2.0303742    35342.233 
 7850000   0.80416413  -0.13031296    2.0388587    35342.233 
 7860000   0.79993726  -0.19701913    2.0454086    35342.233 
 7870000    0.7977311  -0.12881141    2.0268968    35342.233 
 7880000   0.79893989  -0.13317251    2.0356816    35342.233 
 7890000   0.80256312   -0.1306792    2.0505865    35342.233 
 7900000   0.79790475  -0.15536653    2.0206607    35342.233 
 7910000   0.80392723  -0.18785581    2.0418628    35342.233 
 7920000    0.7991341  -0.15689506    2.0410072    35342.233 
 7930000   0.79530371  -0.18842594    2.0333174    35342.233 
 7940000   0.80018134  -0.16124373    2.0402523    35342.233 
 7950000   0.79855426  -0.14024592    2.0336913    35342.233 
 7960000   0.79490982  -0.16009724    2.0326044    35342.233 
 7970000   0.80841671   -0.1064524        2.036    35342.233 
 7980000    0.7945978  -0.13445827    2.0382821    35342.233 
 7990000   0.79881919  -0.14263681    2.0313619    35342.233 
 8000000   0.80434931  -0.15597729    2.0390325    35342.233 
 8010000   0.80189619  -0.12942491    2.0497107    35342.233 
 8020000   0.80417472  -0.13434948    2.0225514    35342.233 
 8030000    0.7990769  -0.14590365    2.0149926    35342.233 
 8040000    0.7997861  -0.15677403    2.0329059    35342.233 
 8050000   0.80239446  -0.20181834    2.0344518    35342.233 
 8060000   0.79499579  -0.18958596     2.027879    35342.233 
 8070000   0.80005838  -0.12601385    2.0291429    35342.233 
 8080000   0.80238234 -0.097952925    2.0335151    35342.233 
 8090000   0.80205744  -0.14188178    2.0308749    35342.233 
 8100000   0.80290113  -0.15002424    2.0295062    35342.233 
 8110000   0.79801385  -0.10730456    2.0337298    35342.233 
 8120000   0.80101135  -0.14772849    2.0370587    35342.233 
 8130000   0.79676757  -0.16786081    2.0313149    35342.233 
 8140000     0.809693  -0.19865666     2.031674    35342.233 
 8150000   0.79826486  -0.14164774    2.0128647    35342.233 
 8160000     0.802073    -0.182032    2.0226718    35342.233 
 8170000   0.79728931  -0.14526849    2.0394333    35342.233 
 8180000   0.79907395  -0.16642139    2.0364018    35342.233 
 8190000   0.79516824 -0.075109718    2.0305488    35342.233 
 8200000   0.79915604  -0.15630387    2.0347555    35342.233 
 8210000    0.8006076  -0.17949685    2.0232399    35342.233 
 8220000   0.79959096  -0.14704406    2.0262037    35342.233 
 8230000   0.79169184  -0.21642853    2.0162983    35342.233 
 8240000   0.79741104  -0.15974753    2.0291882    35342.233 
 8250000   0.79666868  -0.17592751    2.0204673    35342.233 
 8260000   0.80398651  -0.17145079    2.0382541    35342.233 
 8270000   0.80094148  -0.16516718    2.0296861    35342.233 
 8280000   0.79752766  -0.14804789    2.0162782    35342.233 
 8290000   0.79099382  -0.18231292    2.0182563    35342.233 
 8300000   0.80100448  -0.13676137     2.031288    35342.233 
 8310000    0.8040192  -0.14946529    2.0301872    35342.233 
 8320000   0.79993394  -0.13024015    2.0166798    35342.233 
 8330000   0.80228983   -0.2397069    2.0198021    35342.233 
 8340000   0.79906139  -0.12276297    2.0208243    35342.233 
 8350000   0.79723629  -0.17311221    2.0351431    35342.233 
 8360000   0.79976544  -0.13276578    2.0182414    35342.233 
 8370000    0.7993993 -0.081066312    2.0196427    35342.233 
 8380000   0.79938854  -0.09693445     2.047825    35342.233 
 8390000   0.80684146  -0.11264054    2.0421178    35342.233 
 8400000   0.79363158  -0.18507542    2.0252049    35342.233 
 8410000   0.79712797  -0.17359116    2.0223424    35342.233 
 8420000   0.79672324  -0.13001186    2.0309879    35342.233 
 8430000   0.80038279  -0.16652294     2.022388    35342.233 
 8440000   0.79401178   -0.1202762    2.0175706    35342.233 
 8450000   0.80323729  -0.10119681    2.0206472    35342.233 
 8460000   0.79257123   -0.1304126    2.0150694    35342.233 
 8470000   0.80624551   -0.1042098    2.0284892    35342.233 
 8480000   0.79602124  -0.13997773    2.0069089    35342.233 
 8490000   0.79669979  -0.13344367    2.0271719    35342.233 
 8500000   0.80176122  -0.21973699    2.0283479    35342.233 
 8510000    0.7968462  -0.17568634    2.0250463    35342.233 
 8520000   0.80021617  -0.13729138    2.0224654    35342.233 
 8530000    0.7991987   -0.0645589    2.0286417    35342.233 
 8540000   0.78849772  -0.11781246    1.9961508    35342.233 
 8550000   0.80076165  -0.19116561    2.0391947    35342.233 
 8560000   0.80327056 -0.037303538    2.0407506    35342.233 
 8570000   0.79544045  -0.21521711    2.0207472    35342.233 
 8580000   0.80929874  -0.17671094    2.0427279    35342.233 
 8590000   0.79812679  -0.14818426    2.0147636    35342.233 
 8600000   0.79914029  -0.13994223    2.0117334    35342.233 
 8610000   0.80054789  -0.19969648    2.0165263    35342.233 
 8620000   0.80377493  -0.16477677    2.0295104    35342.233 
 8630000   0.79618014  -0.24352467    2.0063934    35342.233 
 8640000   0.80097505  -0.11499664    2.0132699    35342.233 
 8650000   0.80340994 -0.086755351    2.0228924    35342.233 
 8660000   0.79715505  -0.21219926     2.014363    35342.233 
 8670000   0.80193698 -0.075802645    2.0369817    35342.233 
 8680000   0.80313192  -0.19974893    2.0211053    35342.233 
 8690000   0.80565527  -0.12349976    2.0289723    35342.233 
 8700000   0.78824071  -0.11748546    1.9897956    35342.233 
 8710000    0.8043625  -0.13015506    2.0072971    35342.233 
 8720000   0.80600375  -0.19536089     2.027258    35342.233 
 8730000   0.80110115  -0.10920174    2.0266233    35342.233 
 8740000   0.79910572  -0.19166075     2.032218    35342.233 
 8750000   0.79967146  -0.18649954    2.0359292    35342.233 
 8760000   0.79694743   -0.1715596    2.0232504    35342.233 
 8770000    0.8009458 -0.089505708     2.017537    35342.233 
 8780000    0.8023231  -0.14574927    2.0140714    35342.233 
 8790000   0.80047687  -0.17103935    2.0142462    35342.233 
 8800000   0.80075953  -0.14396174    2.0233001    35342.233 
 8810000   0.79643529  -0.23703299    2.0079363    35342.233 
 8820000   0.80622542  -0.18745081    2.0243069    35342.233 
 8830000   0.79757073  -0.17145517    2.0195004    35342.233 
 8840000   0.80213525    -0.136229    2.0298986    35342.233 
 8850000   0.79113735  -0.20399054    2.0153955    35342.233 
 8860000   0.79666685  -0.18154064    2.0133336    35342.233 
 8870000   0.79800576  -0.18366622    2.0248721    35342.233 
 8880000   0.79011526  -0.15225645    2.0096876    35342.233 
 8890000    0.8022506 -0.095483249    2.0202562    35342.233 
 8900000    0.8069583  -0.14188125    2.0218055    35342.233 
 8910000   0.80137563  -0.13992592     2.014195    35342.233 
 8920000   0.79220333  -0.15919489    2.0135632    35342.233 
 8930000   0.80662234 -0.057612573    2.0376874    35342.233 
 8940000   0.79929332  -0.19088088    2.0100763    35342.233 
 8950000   0.80021592   -0.1359643    2.0142208    35342.233 
 8960000    0.8026399  -0.14817419    2.0083303    35342.233 
 8970000   0.80105089  -0.10943776    2.0142509    35342.233 
 8980000   0.79227935  -0.18654794    2.0152394    35342.233 
 8990000   0.79743723  -0.17273596    2.0172622    35342.233 
 9000000    0.7936046  -0.19064073    2.0184437    35342.233 
 9010000   0.80676609  -0.18062596    2.0223568    35342.233 
 9020000   0.80011675  -0.10825945    2.0207998    35342.233 
 9030000   0.79859853  -0.16782164    2.0172109    35342.233 
 9040000   0.80158252  -0.19214691    2.0177557    35342.233 
 9050000   0.79854667 -0.089223659    2.0133461    35342.233 
 9060000   0.79856999  -0.15726029    2.0241873    35342.233 
 9070000   0.80210261  -0.10861814    2.0057081    35342.233 
 9080000   0.79594049  -0.10222587    2.0153924    35342.233 
 9090000   0.80416923  -0.19397802    2.0287887    35342.233 
 9100000    0.7985646   -0.1022668    2.0200155    35342.233 
 9110000   0.80502228  -0.18545638    2.0174485    35342.233 
 9120000   0.80068007  -0.19628834    2.0152094    35342.233 
 9130000   0.80186147  -0.13389032    2.0208658    35342.233 
 9140000   0.80570411  -0.14838144    2.0336802    35342.233 
 9150000   0.80110066  -0.13554345    2.0316216    35342.233 
 9160000    0.8043654  -0.14262943    2.0171517    35342.233 
 9170000    0.7998202   -0.1243304    2.0261029    35342.233 
 9180000   0.80463229   -0.1764148    1.9998689    35342.233 
 9190000   0.80048542  -0.11882446    2.0132644    35342.233 
 9200000   0.79365097  -0.12614091     2.023029    35342.233 
 9210000   0.80516363  -0.17786428    2.0209689    35342.233 
 9220000   0.80067176  -0.15065727    2.0095844    35342.233 
 9230000   0.79519502  -0.12652728    2.0070255    35342.233 
 9240000   0.80374849  -0.13152701    2.0405724    35342.233 
 9250000   0.80653334  -0.13106188    2.0366066    35342.233 
 9260000   0.80007127  -0.10338288    2.0229054    35342.233 
 9270000   0.80132501  -0.12043707    2.0189954    35342.233 
 9280000   0.80084519  -0.11395851    2.0157106    35342.233 
 9290000   0.80208982  -0.16613031    2.0196157    35342.233 
 9300000   0.79852876  -0.22207384    2.0127735    35342.233 
 9310000   0.80259285  -0.14150588    2.0156553    35342.233 
 9320000   0.80089183 -0.045683995    2.0175175    35342.233 
 9330000   0.80044362   -0.1444945    2.0081175    35342.233 
 9340000   0.79973517  -0.14768655     2.012429    35342.233 
 9350000   0.80637477  -0.16557325    2.0396843    35342.233 
 9360000   0.79929622  -0.16904538    2.0220187    35342.233 
 9370000    0.8004549  -0.11251496    1.9998309    35342.233 
 9380000   0.79916578  -0.18964156    2.0175726    35342.233 
 9390000   0.80345733   -0.2195104    2.0254459    35342.233 
 9400000    0.7963376  -0.18202858    2.0122272    35342.233 
 9410000   0.79591356  -0.17363384     2.023123    35342.233 
 9420000   0.79468165  -0.20745312    2.0049561    35342.233 
 9430000   0.79657992  -0.13031945    2.0142759    35342.233 
 9440000   0.80123205  -0.11927538    2.0140153    35342.233 
 9450000   0.79447943 -0.094611669    2.0106971    35342.233 
 9460000   0.80036375  -0.23338764    2.0146671    35342.233 
 9470000   0.80384924  -0.21502898    2.0255548    35342.233 
 9480000   0.80157061  -0.04234656    2.0171479    35342.233 
 9490000   0.79968109  -0.21857999    2.0190475    35342.233 
 9500000   0.79978118  -0.15645863    2.0169601    35342.233 
 9510000   0.79978723  -0.16789072    2.0327796    35342.233 
 9520000   0.80210049  -0.16476158    2.0166401    35342.233 
 9530000   0.79643726   -0.1435095    2.0156907    35342.233 
 9540000   0.80504807   -0.1303601    2.0080904    35342.233 
 9550000    0.7946215   -0.1616796    2.0086468    35342.233 
 9560000   0.80194272  -0.18850982    2.0116052    35342.233 
 9570000   0.79853219  -0.17143422    2.0081618    35342.233 
 9580000   0.80487298  -0.16910009    2.0140597    35342.233 
 9590000   0.79331283  -0.13988199    2.0073304    35342.233 
 9600000    0.7999829  -0.13797165    2.0213824    35342.233 
 9610000   0.79874757  -0.13980828      2.01166    35342.233 
 9620000   0.80098972  -0.14738846    2.0229037    35342.233 
 9630000   0.79793968  -0.13069799    2.0101902    35342.233 
 9640000   0.79863429  -0.12669438    2.0316045    35342.233 
 9650000   0.80848652  -0.15312151    2.0238546    35342.233 
 9660000   0.79875713 -0.098547157    2.0037004    35342.233 
 9670000   0.80442728  -0.19628174    2.0157768    35342.233 
 9680000   0.80216247  -0.14147674      2.01869    35342.233 
 9690000   0.80024647  -0.20702583    2.0149519    35342.233 
 9700000   0.79631601 -0.087979299    2.0116641    35342.233 
 9710000   0.79808044  -0.16022999    2.0192077    35342.233 
 9720000   0.79847446  -0.18084237    2.0216466    35342.233 
 9730000   0.79237837  -0.23667351    1.9992362    35342.233 
 9740000   0.80079345 -0.083144438    2.0110236    35342.233 
 9750000   0.79866877  -0.12248142    2.0230634    35342.233 
 9760000   0.79581554 -0.088508154    1.9926425    35342.233 
 9770000   0.80435346  -0.14965389    2.0213482    35342.233 
 9780000   0.79936447  -0.19895258    2.0255147    35342.233 
 9790000   0.79339873  -0.19250379    2.0029937    35342.233 
 9800000   0.79534622  -0.10556114    2.0152074    35342.233 
 9810000   0.79158885  -0.16192934     2.004627    35342.233 
 9820000   0.79872816  -0.18751544    2.0110618    35342.233 
 9830000   0.79858439 -0.087231402    2.0048955    35342.233 
 9840000   0.79431706   -0.1399097    2.0049751    35342.233 
 9850000   0.80072277  -0.15958351    2.0099068    35342.233 
 9860000    0.8073718  -0.13728218    2.0070682    35342.233 
 9870000   0.79418778 -0.082331383    2.0081876    35342.233 
 9880000   0.79642666  -0.14463804    2.0232366    35342.233 
 9890000     0.801948  -0.11217907    2.0151273    35342.233 
 9900000   0.79865672 -0.095752232    2.0154306    35342.233 
 9910000   0.80211267  -0.15053701    2.0294918    35342.233 
 9920000   0.80432237  -0.15759937    2.0265738    35342.233 
 9930000   0.80042446  -0.10066778    1.9956783    35342.233 
 9940000   0.80108538  -0.15720153    2.0231072    35342.233 
 9950000   0.79586191  -0.10861144    2.0062222    35342.233 
 9960000   0.80310137  -0.13927561    2.0187755    35342.233 
 9970000   0.79512971  -0.15587827    2.0020067    35342.233 
 9980000   0.79531143  -0.13004087    1.9959266    35342.233 
 9990000   0.80073082  -0.12188378    2.0184955    35342.233 
10000000   0.80337234  -0.10358368    2.0206351    35342.233 
10010000   0.80297292   -0.1212639    2.0070567    35342.233 
10020000   0.80420007  -0.15893038    2.0105658    35342.233 
10030000   0.79741284 -0.051207334    2.0213444    35342.233 
10040000   0.79264032 -0.088932419    1.9891842    35342.233 
10050000   0.79836608 -0.073619234    1.9961946    35342.233 
10060000   0.79362686  -0.14487361    2.0092484    35342.233 
10070000   0.79597697  -0.13229696    2.0186478    35342.233 
10080000   0.79895275  -0.14339119    2.0058902    35342.233 
10090000   0.79804105  -0.11934573    2.0040109    35342.233 
10100000   0.80343333  -0.13767473    2.0251697    35342.233 
10110000   0.80253509  -0.16179891    2.0250856    35342.233 
10120000   0.79583459  -0.17139333    2.0039528    35342.233 
10130000   0.79600302  -0.13411413     2.005243    35342.233 
10140000   0.79322216  -0.19691018     2.011196    35342.233 
10150000   0.79501369   -0.1411233    2.0069804    35342.233 
10160000   0.80518433  -0.15764132    2.0134105    35342.233 
10170000    0.8014117    -0.130688    2.0182018    35342.233 
10180000   0.79727919  -0.17662979    2.0244415    35342.233 
10190000    0.7990189  -0.15182533    2.0121854    35342.233 
10200000   0.80120737  -0.20827106    2.0293002    35342.233 
10210000   0.79548831  -0.12266414    2.0032318    35342.233 
10220000   0.79435315  -0.16753548     2.002604    35342.233 
10230000   0.80050894  -0.10982954    2.0198215    35342.233 
10240000   0.79476811  -0.13862742    2.0040076    35342.233 
10250000   0.80305458  -0.14996924    2.0193691    35342.233 
10260000   0.79912945  -0.18250662    2.0077288    35342.233 
10270000   0.79613277  -0.13740756    2.0052845    35342.233 
10280000   0.79852991  -0.16439395    2.0081144    35342.233 
10290000   0.79349311 -0.082176041    2.0021353    35342.233 
10300000   0.80171922   -0.1956775    2.0211954    35342.233 
10310000   0.80027747  -0.15962263    2.0156357    35342.233 
10320000   0.80473783  -0.11419647    2.0218228    35342.233 
10330000   0.79503657   -0.1487752    2.0101242    35342.233 
10340000   0.80762571  -0.21880913    2.0210146    35342.233 
10350000   0.79899826  -0.19409343    2.0217392    35342.233 
10360000   0.79834996  -0.18805162    1.9973594    35342.233 
10370000   0.80040402  -0.22452947    2.0150942    35342.233 
10380000   0.79914201 -0.096712082    2.0076524    35342.233 
10390000    0.8054491  -0.13085714    2.0111646    35342.233 
10400000   0.80063654  -0.04261596    2.0104776    35342.233 
10410000   0.80420982  -0.16011355    2.0072399    35342.233 
10420000    0.7978488  -0.11191583    2.0169984    35342.233 
10430000    0.7966814  -0.15130949    1.9814053    35342.233 
10440000   0.80375625 -0.086254752    2.0203606    35342.233 
10450000   0.79611907  -0.12223599    2.0185776    35342.233 
10460000   0.79542681  -0.09692139     1.991386    35342.233 
10470000    0.7944261  -0.15276398    2.0095673    35342.233 
10480000   0.79646224   -0.1872864    2.0143793    35342.233 
10490000   0.79943042    -0.141387    2.0107664    35342.233 
10500000    0.7964631  -0.16572927    2.0055845    35342.233 
10510000   0.80898705  -0.18359742    2.0058896    35342.233 
10520000   0.80617283  -0.14970323    2.0102424    35342.233 
10530000   0.79940797  -0.13416108    2.0108717    35342.233 
10540000   0.80289734  -0.18853404    2.0187122    35342.233 
10550000   0.80088186  -0.09868517    2.0113499    35342.233 
10560000   0.79943273 -0.089075805    2.0029013    35342.233 
10570000   0.80559039  -0.17136899    2.0099712    35342.233 
10580000   0.79982062  -0.13724593    2.0099139    35342.233 
10590000   0.80294024  -0.14481669    2.0255506    35342.233 
10600000   0.79584365  -0.16292127    2.0070538    35342.233 
10610000   0.79625861 -0.099968907    2.0042854    35342.233 
10620000   0.80121933 -0.008973722    2.0175081    35342.233 
10630000   0.79730868  -0.15416303    2.0192091    35342.233 
10640000   0.79936808  -0.17667516    2.0027981    35342.233 
10650000   0.80057358  -0.18275231    2.0216676    35342.233 
10660000   0.79772754  -0.10962682    2.0017289    35342.233 
10670000   0.80232511  -0.21383395    2.0153114    35342.233 
10680000   0.80193798   -0.2361089    2.0306526    35342.233 
10690000   0.79830316  -0.11141167    2.0106206    35342.233 
10700000    0.8002042  -0.16078168    2.0076024    35342.233 
10710000   0.79753273  -0.17842027    2.0091331    35342.233 
10720000   0.80267656   -0.2251631    2.0068751    35342.233 
10730000   0.80768248  -0.12036505    2.0256786    35342.233 
10740000   0.80138513 -0.058933995    2.0094695    35342.233 
10750000   0.79818165  -0.11550427    2.0139285    35342.233 
10760000   0.79955364  -0.17844943     2.010664    35342.233 
10770000   0.80802111  -0.18691089    2.0165315    35342.233 
10780000   0.80062327  -0.16820638    2.0158593    35342.233 
10790000   0.80285924  -0.15484811    2.0168498    35342.233 
10800000   0.79875309  -0.11982801    2.0071542    35342.233 
10810000   0.79421171  -0.21006989    1.9975004    35342.233 
10820000   0.80251238  -0.11688363    2.0068882    35342.233 
10830000   0.80363177  -0.12827096    2.0231952    35342.233 
10840000   0.79969662  -0.13720629     2.005813    35342.233 
10850000   0.79777186  -0.16008695    2.0158791    35342.233 
10860000   0.80601969  -0.18219294    2.0325515    35342.233 
10870000    0.8047952  -0.11349836    2.0158701    35342.233 
10880000   0.80604642  -0.12045567    2.0140386    35342.233 
10890000   0.80155707  -0.11680119    2.0077212    35342.233 
10900000   0.80156127  -0.19075314    2.0171095    35342.233 
10910000   0.79938242  -0.20659098    1.9985429    35342.233 
10920000   0.79976543  -0.15078196    2.0061751    35342.233 
10930000   0.80775185  -0.14262246    2.0279131    35342.233 
10940000   0.80138491 -0.086403188    2.0033563    35342.233 
10950000   0.78859476  -0.16048233    1.9994752    35342.233 
10960000   0.79582171  -0.16147411    1.9996118    35342.233 
10970000    0.7979931  -0.14247344    2.0138549    35342.233 
10980000   0.80001011   -0.1626231    2.0049148    35342.233 
10990000   0.79037268  -0.13930433    1.9930935    35342.233 
11000000   0.80255136   -0.1340072    2.0099053    35342.233 
11010000   0.79988916  -0.18489571    2.0061045    35342.233 
11020000   0.80281259  -0.15985987    2.0292174    35342.233 
11030000   0.79770226  -0.13063468    1.9933596    35342.233 
11040000   0.79350016  -0.22179954    1.9985299    35342.233 
11050000   0.80098432 -0.092110617    2.0198697    35342.233 
11060000   0.80151863 -0.084794422    2.0082092    35342.233 
11070000   0.79580897  -0.13288272    2.0028023    35342.233 
11080000   0.80109471  -0.14349606    2.0023686    35342.233 
11090000   0.79845486  -0.17957733    2.0097148    35342.233 
11100000   0.79341263  -0.16424335    2.0007376    35342.233 
11110000   0.79859403  -0.21699039    2.0080223    35342.233 
11120000   0.79985374  -0.14610484    1.9996808    35342.233 
11130000   0.80222864  -0.10856632     2.022238    35342.233 
11140000   0.79972721  -0.16031286    2.0082086    35342.233 
11150000   0.79971149  -0.15723666     2.012452    35342.233 
11160000   0.80566466  -0.16949064    2.0179048    35342.233 
11170000   0.79894292  -0.10862611    2.0210985    35342.233 
11180000   0.80064679 -0.083332012    2.0345757    35342.233 
11190000   0.80353718  -0.10217984    2.0125969    35342.233 
11200000   0.79474943  -0.16664754    2.0000368    35342.233 
11210000   0.79958341  -0.18121224    2.0058341    35342.233 
11220000     0.793939  -0.16934902    2.0008328    35342.233 
11230000   0.80172715  -0.14499609    2.0217136    35342.233 
11240000   0.79911559  -0.20427477    2.0204096    35342.233 
11250000   0.80043657 -0.092682779    2.0135618    35342.233 
11260000   0.79780796  -0.13757789    2.0158885    35342.233 
11270000   0.80124397  -0.15384356    2.0129917    35342.233 
11280000   0.79892901  -0.14824442    2.0181805    35342.233 
11290000   0.79598531 -0.080884516    2.0004998    35342.233 
11300000   0.80522312  -0.21624633     2.028292    35342.233 
11310000   0.80918413  -0.18828053    2.0173621    35342.233 
11320000    0.8010069 -0.094375308    1.9987562    35342.233 
11330000   0.79267601   -0.1373352    1.9990292    35342.233 
11340000   0.79881088  -0.18892565    2.0034595    35342.233 
11350000   0.79490348   -0.1304672    2.0148544    35342.233 
11360000   0.80489126  -0.25176699    2.0299973    35342.233 
11370000   0.80041218 -0.053782548    2.0210263    35342.233 
11380000   0.79252288  -0.16187867    1.9970235    35342.233 
11390000   0.80305574  -0.11497803    2.0108929    35342.233 
11400000   0.79378594  -0.19897673    1.9993353    35342.233 
11410000   0.80622469  -0.12645379     2.014116    35342.233 
11420000   0.80503419  -0.12356432    2.0203617    35342.233 
11430000    0.7993755 -0.095820222    2.0017259    35342.233 
11440000   0.80772714  -0.13299954    2.0203016    35342.233 
11450000   0.80554991  -0.17833246    2.0174686    35342.233 
11460000   0.79602156  -0.17589816    1.9912771    35342.233 
11470000   0.80489887  -0.16602083    2.0030022    35342.233 
11480000   0.79867239   -0.1381414    2.0017317    35342.233 
11490000   0.80184018  -0.14052142    2.0196555    35342.233 
11500000   0.80256293  -0.16073031    2.0211973    35342.233 
11510000   0.79290485  -0.19544209    1.9949142    35342.233 
11520000   0.80310208   -0.2031348    2.0168568    35342.233 
11530000   0.79978776  -0.19056792    2.0152621    35342.233 
11540000   0.79095933  -0.15797278    1.9829625    35342.233 
11550000   0.79765338  -0.15494087    1.9997718    35342.233 
11560000   0.80210161  -0.21741475    2.0101506    35342.233 
11570000   0.79616526 -0.095253258    2.0099386    35342.233 
11580000   0.79887513  -0.18056058    1.9944335    35342.233 
11590000   0.80234141  -0.12537662    2.0109209    35342.233 
11600000    0.8083425 -0.033833756    2.0221446    35342.233 
11610000   0.79492542  -0.20492751    1.9914248    35342.233 
11620000   0.80031714  -0.15689883    2.0147059    35342.233 
11630000   0.79694982  -0.19581433    2.0038471    35342.233 
11640000   0.80079282  -0.21341758     2.004917    35342.233 
11650000   0.79689375  -0.21179507    2.0141362    35342.233 
11660000   0.80688575  -0.13710658    2.0147495    35342.233 
11670000   0.80552959  -0.12836722    2.0138144    35342.233 
11680000   0.80159207   -0.1667314    2.0078212    35342.233 
11690000   0.80457624  -0.17205077    1.9998032    35342.233 
11700000   0.80368062  -0.16903089    2.0142643    35342.233 
11710000   0.79169235   -0.1423305     1.989013    35342.233 
11720000   0.79545677  -0.15632755    1.9899413    35342.233 
11730000    0.7987516  -0.16711466    2.0079611    35342.233 
11740000   0.80431613  -0.11841271    2.0167414    35342.233 
11750000   0.80523607  -0.16019894     2.015637    35342.233 
11760000   0.80026932  -0.17240595    2.0056192    35342.233 
11770000   0.79955095  -0.16559112    2.0122142    35342.233 
11780000   0.79881208  -0.21228176     2.001742    35342.233 
11790000   0.80111492  -0.17144978    2.0154829    35342.233 
11800000   0.79727866  -0.12012235    2.0067365    35342.233 
11810000   0.80016967  -0.17043201    2.0018677    35342.233 
11820000   0.79848456   -0.1183295    2.0013889    35342.233 
11830000   0.79581737  -0.17723455    2.0033318    35342.233 
11840000   0.80123132  -0.19208244    2.0190188    35342.233 
11850000   0.79379948  -0.15271329    2.0090088    35342.233 
11860000   0.80256566  -0.19846493    2.0155241    35342.233 
11870000   0.80462667  -0.16783161    2.0073956    35342.233 
11880000   0.79769769  -0.11941428    2.0219736    35342.233 
11890000   0.80124374  -0.21175368    2.0114884    35342.233 
11900000   0.80489393  -0.16500213    2.0110317    35342.233 
11910000   0.79963748 -0.099170623    2.0165894    35342.233 
11920000   0.79566663  -0.14270168    2.0054905    35342.233 
11930000    0.8085867  -0.15847592    2.0214499    35342.233 
11940000   0.79897011  -0.18460652    1.9870619    35342.233 
11950000   0.80539074   -0.1595024    2.0024534    35342.233 
11960000   0.79979586  -0.15403458    1.9990148    35342.233 
11970000   0.80306085  -0.12282746    2.0077285    35342.233 
11980000   0.80220913  -0.15323158    1.9932921    35342.233 
11990000   0.79830341 -0.076600123    2.0043016    35342.233 
12000000   0.79770365 -0.084724951    1.9931354    35342.233 
Loop time of 51491.5 on 216 procs for 5000000 steps with 28900 atoms

Performance: 41948.653 tau/day, 97.103 timesteps/s
99.9% CPU use with 216 MPI tasks x 1 OpenMP threads

MPI task timing breakdown:
Section |  min time  |  avg time  |  max time  |%varavg| %total
---------------------------------------------------------------
Pair    | 532.99     | 661.46     | 826.54     | 188.3 |  1.28
Bond    | 8.1192     | 10.235     | 13.329     |  25.8 |  0.02
Kspace  | 45690      | 46407      | 46820      | 104.1 | 90.13
Neigh   | 626.76     | 657.39     | 689.71     |  54.4 |  1.28
Comm    | 1216.2     | 1572.4     | 2096.6     | 472.7 |  3.05
Output  | 2.6872     | 2.6884     | 2.7261     |   0.2 |  0.01
Modify  | 1603.1     | 1802.1     | 1978.2     | 206.1 |  3.50
Other   |            | 378.3      |            |       |  0.73

Nlocal:    133.796 ave 225 max 8 min
Histogram: 4 2 2 1 16 95 72 21 2 1
Nghost:    976.394 ave 1184 max 455 min
Histogram: 3 3 2 0 7 16 27 109 41 8
Neighs:    5151.18 ave 11247 max 195 min
Histogram: 8 0 8 56 71 48 17 7 0 1

Total # of neighbors = 1112654
Ave neighs/atom = 38.5001
Ave special neighs/atom = 0.602076
Neighbor list builds = 671649
Dangerous builds = 0
System init for write_restart ...
PPPM initialization ...
  using 12-bit tables for long-range coulomb (src/kspace.cpp:332)
  G vector (1/distance) = 1.17992
  grid = 100 100 100
  stencil order = 5
  estimated absolute RMS force accuracy = 0.000122379
  estimated relative force accuracy = 0.000122379
  using double precision FFTW3
  3d grid and FFT values/proc = 12167 5400
WARNING: Neighbor exclusions used with KSpace solver may give inconsistent Coulombic energies (src/neighbor.cpp:486)
Neighbor list info ...
  update every 1 steps, delay 0 steps, check yes
  max neighbors/atom: 2000, page size: 100000
  master list distance cutoff = 2.8
  ghost atom cutoff = 2.8
  binsize = 1.4, bins = 24 24 24
  2 neighbor lists, perpetual/occasional/extra = 2 0 0
  (1) pair lj/cut, perpetual
      attributes: half, newton on
      pair build: half/bin/newton
      stencil: half/bin/3d/newton
      bin: standard
  (2) pair coul/long, perpetual, skip from (1)
      attributes: half, newton on
      pair build: skip
      stencil: none
      bin: none
Total wall time: 15:48:12
