LAMMPS (3 Mar 2020)
OMP_NUM_THREADS environment is not set. Defaulting to 1 thread. (src/comm.cpp:94)
  using 1 OpenMP thread(s) per MPI task
Reading data file ...
  orthogonal box = (0 0 0) to (34 34 34)
  6 by 6 by 6 MPI processor grid
  reading atoms ...
  27950 atoms
  scanning bonds ...
  1 = max bonds/atom
  reading bonds ...
  8700 bonds
Finding 1-2 1-3 1-4 neighbors ...
  special bond factors lj:   0          0          0         
  special bond factors coul: 0          0          0         
  2 = max # of 1-2 neighbors
  2 = max # of 1-3 neighbors
  4 = max # of 1-4 neighbors
  6 = max # of special neighbors
  special bonds CPU = 2.48369 secs
  read_data CPU = 2.63735 secs
7200 atoms in group polyA
1800 atoms in group sticker
1800 atoms in group counterions
9000 atoms in group chain
950 atoms in group filler
15250 atoms in group water
950 atoms in group salt
27000 atoms in group exc
Finding 1-2 1-3 1-4 neighbors ...
  special bond factors lj:   0          1          1         
  special bond factors coul: 0          1          1         
  2 = max # of 1-2 neighbors
  6 = max # of special neighbors
  special bonds CPU = 0.0208039 secs
50 rigid bodies with 950 atoms
Neighbor list info ...
  update every 1 steps, delay 0 steps, check yes
  max neighbors/atom: 2000, page size: 100000
  master list distance cutoff = 1.7
  ghost atom cutoff = 1.7
  binsize = 0.85, bins = 40 40 40
  1 neighbor lists, perpetual/occasional/extra = 1 0 0
  (1) pair soft, perpetual
      attributes: half, newton on
      pair build: half/bin/newton
      stencil: half/bin/3d/newton
      bin: standard
Setting up Verlet run ...
  Unit style    : lj
  Current step  : 0
  Time step     : 0.005
WARNING: Communication cutoff 1.7 is shorter than a bond length based estimate of 1.755. This may lead to errors. (src/comm.cpp:686)
Per MPI rank memory allocation (min/avg/max) = 12.02 | 14.38 | 15.14 Mbytes
Step Temp Press TotEng Volume 
       0   0.79925315    5.0892911    17.577872        39304 
   10000   0.80317097    10.934207    11.980134        39304 
   20000   0.80130079    12.277003    12.297082        39304 
   30000   0.80732204    13.626429    12.593705        39304 
   40000   0.80176083    14.851581    12.879958        39304 
   50000   0.79353785    16.210453     13.14952        39304 
   60000   0.79710247    17.533496     13.44442        39304 
   70000    0.7962812    18.842891    13.730309        39304 
   80000   0.80249776    20.200774    14.022676        39304 
   90000   0.79876993    21.492652    14.299432        39304 
  100000   0.80382725    22.802574    14.590837        39304 
  110000   0.79902756    24.130807    14.886018        39304 
  120000   0.79586733    25.366897    15.206562        39304 
  130000   0.79890618    26.703754    15.516687        39304 
  140000   0.80763674    28.016723    15.846486        39304 
  150000   0.80115627    29.352476     16.16062        39304 
  160000   0.80731416    30.601397    16.478303        39304 
  170000   0.79589038    31.983392    16.787873        39304 
  180000   0.80095438    33.230911    17.115866        39304 
  190000   0.79732055    34.563951    17.435107        39304 
  200000   0.80467569    35.859398    17.773559        39304 
  210000   0.80357833    37.125507    18.101267        39304 
  220000    0.7933362    38.354511     18.40724        39304 
  230000   0.80382639    39.727518    18.761224        39304 
  240000   0.79785489    40.952509    19.069911        39304 
  250000   0.78965587    42.243712    19.378385        39304 
  260000   0.80127709    43.603509    19.716754        39304 
  270000   0.80724841     44.84898     20.04568        39304 
  280000    0.7979558     46.11409    20.369443        39304 
  290000   0.80239978    47.424684    20.706409        39304 
  300000   0.81004228    48.684637    21.037311        39304 
  310000   0.79922941    49.978031    21.346897        39304 
  320000   0.80504248    51.257273    21.674561        39304 
  330000    0.7982149    52.548845    21.990081        39304 
  340000   0.80366074     53.85741    22.319907        39304 
  350000    0.7936152    55.072003    22.630697        39304 
  360000    0.7967507    56.374985    22.955299        39304 
  370000   0.79696416    57.622014    23.282921        39304 
  380000   0.80610304    58.915239    23.614319        39304 
  390000   0.79873174     60.17002    23.933862        39304 
  400000   0.80045786      61.3778    24.262886        39304 
  410000   0.80653706     62.73025     24.57923        39304 
  420000   0.80314316    63.968655    24.910283        39304 
  430000   0.80230091     65.27469    25.235952        39304 
  440000   0.80425595     66.50156    25.562115        39304 
  450000   0.79616145    67.751538    25.862388        39304 
  460000   0.80262942    69.013012    26.192639        39304 
  470000   0.79994005    70.231915    26.507384        39304 
  480000   0.80023823    71.509588    26.842004        39304 
  490000   0.79392821     72.73467    27.140021        39304 
  500000   0.79064763    73.977231    27.470442        39304 
  510000   0.79610854    75.269154    27.790896        39304 
  520000   0.79631345    76.521498    28.105291        39304 
  530000   0.79478317    77.792833    28.435867        39304 
  540000   0.79717244    79.073553    28.776696        39304 
  550000   0.80450514    80.349263    29.085661        39304 
  560000    0.7947465    81.569954    29.385744        39304 
  570000    0.8027913    82.794707    29.712698        39304 
  580000   0.79075556    84.058392    30.016407        39304 
  590000   0.79120111    85.329343    30.352107        39304 
  600000   0.80532826    86.561518    30.692016        39304 
  610000   0.79615829    87.795048    30.993293        39304 
  620000   0.80252545    89.022393    31.320477        39304 
  630000   0.80044354     90.27639    31.641946        39304 
  640000   0.79554979    91.486569    31.944118        39304 
  650000    0.8000246    92.783284    32.269348        39304 
  660000   0.79452943    94.013237    32.575184        39304 
  670000   0.78905633    95.262009    32.886352        39304 
  680000   0.79466497    96.563484    33.213785        39304 
  690000   0.79862784    97.770999    33.548143        39304 
  700000   0.80368722    98.949114    33.876075        39304 
  710000   0.80540497    100.21265    34.192424        39304 
  720000   0.79615868    101.44317     34.48449        39304 
  730000   0.80124107    102.72664    34.810751        39304 
  740000   0.80005008    103.96001    35.129078        39304 
  750000   0.79862076    105.19688    35.454856        39304 
  760000   0.80106215    106.41345    35.763176        39304 
  770000   0.80034681    107.64655    36.074757        39304 
  780000   0.79974258    108.85776    36.390222        39304 
  790000   0.80316691    110.11267    36.716485        39304 
  800000   0.79554187    111.39658    37.021227        39304 
  810000   0.80245671    112.63143    37.345682        39304 
  820000   0.79321231    113.75422    37.648962        39304 
  830000   0.80733781    115.01056    37.985268        39304 
  840000   0.79544401    116.22503    38.289996        39304 
  850000   0.80418858    117.51935    38.611947        39304 
  860000   0.80325064    118.74646    38.929647        39304 
  870000    0.8053966    119.93286      39.2336        39304 
  880000   0.80021845    121.16422    39.548809        39304 
  890000   0.80341219    122.43989    39.874606        39304 
  900000   0.79575285    123.66477    40.175208        39304 
  910000    0.7990807    124.80888    40.493633        39304 
  920000   0.79712935    126.06559    40.800173        39304 
  930000   0.79210833    127.27301    41.115168        39304 
  940000   0.79726296    128.50754    41.429783        39304 
  950000   0.79596735    129.76513    41.735692        39304 
  960000   0.80027433    130.99252    42.063576        39304 
  970000   0.80412647    132.20788    42.389533        39304 
  980000   0.79723945    133.42121    42.672183        39304 
  990000   0.80003987    134.62061    42.997849        39304 
 1000000    0.7972974    135.83615    43.298561        39304 
 1010000   0.79644401    137.13304    43.622883        39304 
 1020000   0.79347308    138.28007    43.936037        39304 
 1030000   0.79022321    139.55849    44.240832        39304 
 1040000   0.79202836    140.75283    44.554158        39304 
 1050000   0.79757096    141.91297     44.87806        39304 
 1060000   0.80317527    143.20495    45.196064        39304 
 1070000   0.80606861    144.39365    45.507816        39304 
 1080000   0.80438264    145.54729    45.820331        39304 
 1090000   0.80167651     146.7869    46.137863        39304 
 1100000   0.79754394    148.01743    46.435785        39304 
 1110000   0.80307238    149.24191    46.766454        39304 
 1120000   0.79740383    150.51535    47.061046        39304 
 1130000    0.7998548    151.63379    47.387862        39304 
 1140000   0.80234891    152.91103    47.684236        39304 
 1150000   0.80074079    154.04823    47.990447        39304 
 1160000   0.79982828    155.32383    48.311492        39304 
 1170000   0.80210424     156.4973    48.629762        39304 
 1180000   0.80376441    157.65492    48.931863        39304 
 1190000   0.80030291    158.92858      49.2394        39304 
 1200000   0.80259765    160.12465    49.559559        39304 
 1210000   0.80280464    161.31439    49.865023        39304 
 1220000   0.80408673    162.55342    50.180906        39304 
 1230000    0.7985792    163.77514    50.473454        39304 
 1240000   0.79756653    164.93688    50.801416        39304 
 1250000    0.7988629    166.12349    51.101563        39304 
 1260000   0.80456977    167.38911    51.422531        39304 
 1270000   0.80486356    168.64694    51.733175        39304 
 1280000    0.7999431    169.76517    52.042908        39304 
 1290000   0.80881119    171.06528    52.363736        39304 
 1300000   0.80532117    172.21659    52.658229        39304 
 1310000    0.8019051    173.45385    52.970816        39304 
 1320000   0.80197524    174.60131    53.275498        39304 
 1330000   0.80077246    175.81571    53.580825        39304 
 1340000   0.79478191    177.08065    53.877424        39304 
 1350000    0.7986412    178.13621    54.187815        39304 
 1360000    0.8027833    179.47569    54.514345        39304 
 1370000    0.7979741    180.65308    54.830701        39304 
 1380000   0.79939357      181.903    55.115517        39304 
 1390000   0.79391071     182.9874    55.417159        39304 
 1400000   0.79912604    184.27981    55.748008        39304 
 1410000   0.79892405    185.59766    56.041468        39304 
 1420000   0.79320071    186.70131    56.352689        39304 
 1430000   0.80286801    187.89935     56.66997        39304 
 1440000   0.80174726    189.08622    56.979005        39304 
 1450000   0.79383397    190.33814    57.275863        39304 
 1460000   0.79674998    191.54923    57.590192        39304 
 1470000   0.80432186    192.69783    57.902463        39304 
 1480000    0.7940609    193.90386    58.195134        39304 
 1490000   0.80191351    195.11285    58.524967        39304 
 1500000   0.79578224    196.27708    58.819111        39304 
 1510000   0.79821335    197.57778    59.137577        39304 
 1520000   0.80189828    198.62868    59.449142        39304 
 1530000   0.80773268    199.94433     59.75346        39304 
 1540000   0.79831496    201.22956    60.058573        39304 
 1550000   0.79855663    202.27137    60.368024        39304 
 1560000   0.80026143    203.41916     60.66812        39304 
 1570000   0.80204612    204.71893    60.981495        39304 
 1580000   0.79936655    205.79879    61.282908        39304 
 1590000   0.80422773    207.09869    61.584502        39304 
 1600000   0.79664313    208.21004    61.891596        39304 
 1610000   0.80819633     209.4973    62.224735        39304 
 1620000   0.79556068    210.63863    62.510267        39304 
 1630000   0.79583265    211.84762    62.802446        39304 
 1640000   0.79636274    213.07572    63.118948        39304 
 1650000   0.79916885    214.25294    63.435343        39304 
 1660000   0.80208628    215.45273     63.72846        39304 
 1670000   0.79874491    216.62374    64.035408        39304 
 1680000   0.80078283    217.88141    64.346987        39304 
 1690000   0.80045482    218.96087    64.643621        39304 
 1700000   0.80286759    220.18278    64.956987        39304 
 1710000   0.79997672    221.40788    65.249386        39304 
 1720000   0.79949329    222.58492    65.564708        39304 
 1730000   0.79745818    223.77227    65.861388        39304 
 1740000   0.79891231    224.93601    66.171539        39304 
 1750000   0.79838349    226.15216    66.470392        39304 
 1760000   0.79249341    227.38835      66.7796        39304 
 1770000   0.80684172    228.61695     67.09945        39304 
 1780000   0.79536642    229.68772    67.395781        39304 
 1790000   0.80778514    230.84466    67.710413        39304 
 1800000   0.80344911     232.1141     68.01957        39304 
 1810000   0.80399008    233.33185     68.32383        39304 
 1820000   0.79747248    234.49129    68.626175        39304 
 1830000   0.80002263    235.66793    68.922888        39304 
 1840000   0.80360645    236.90672    69.248207        39304 
 1850000   0.80692378    237.90301    69.548031        39304 
 1860000   0.79576495    239.25432    69.837526        39304 
 1870000   0.79734893    240.37757    70.136168        39304 
 1880000   0.79677095    241.64625    70.440645        39304 
 1890000   0.79983392    242.84427    70.763877        39304 
 1900000   0.79353636    243.92106    71.053114        39304 
 1910000   0.80057883    245.23129    71.360483        39304 
 1920000   0.79757233    246.33008    71.654625        39304 
 1930000   0.79906263    247.55881    71.976975        39304 
 1940000   0.80253953    248.63947    72.278648        39304 
 1950000   0.79970427    249.89561    72.573263        39304 
 1960000   0.79714023    251.14732    72.893172        39304 
 1970000   0.79989447    252.29205    73.181918        39304 
 1980000   0.79714685    253.45189    73.493215        39304 
 1990000    0.8033098    254.73621    73.792927        39304 
 2000000   0.80223079    255.80524    74.107382        39304 
Loop time of 999.971 on 216 procs for 2000000 steps with 27950 atoms

Performance: 864025.174 tau/day, 2000.058 timesteps/s
99.9% CPU use with 216 MPI tasks x 1 OpenMP threads

MPI task timing breakdown:
Section |  min time  |  avg time  |  max time  |%varavg| %total
---------------------------------------------------------------
Pair    | 127.06     | 132.42     | 144.66     |  27.3 | 13.24
Bond    | 0.64398    | 2.8479     | 4.4478     |  49.6 |  0.28
Neigh   | 63.57      | 72.273     | 78.72      |  28.9 |  7.23
Comm    | 246.61     | 299.06     | 343.45     |  93.0 | 29.91
Output  | 0.64279    | 0.64833    | 0.66729    |   0.3 |  0.06
Modify  | 296.01     | 357.15     | 428.69     | 157.4 | 35.72
Other   |            | 135.6      |            |       | 13.56

Nlocal:    129.398 ave 166 max 117 min
Histogram: 6 65 85 45 9 3 1 0 0 2
Nghost:    401.324 ave 451 max 369 min
Histogram: 2 10 35 71 56 28 10 0 3 1
Neighs:    877.144 ave 1237 max 763 min
Histogram: 13 61 93 37 6 3 1 0 0 2

Total # of neighbors = 189463
Ave neighs/atom = 6.77864
Ave special neighs/atom = 0.62254
Neighbor list builds = 237399
Dangerous builds = 0
System init for write_data ...
Neighbor list info ...
  update every 1 steps, delay 0 steps, check yes
  max neighbors/atom: 2000, page size: 100000
  master list distance cutoff = 2.8
  ghost atom cutoff = 2.8
  binsize = 1.4, bins = 25 25 25
  1 neighbor lists, perpetual/occasional/extra = 1 0 0
  (1) pair lj/cut, perpetual
      attributes: half, newton on
      pair build: half/bin/newton
      stencil: half/bin/3d/newton
      bin: standard
Setting up Verlet run ...
  Unit style    : lj
  Current step  : 2000000
  Time step     : 0.005
Per MPI rank memory allocation (min/avg/max) = 12.15 | 14.51 | 15.16 Mbytes
Step Temp Press TotEng Volume 
 2000000   0.80223079    9.4389863    5.4134462        39304 
 2010000   0.79708128  -0.10943947    2.5142371    34609.576 
 2020000   0.79965149    -0.112224    2.5267602    34679.339 
 2030000   0.80647906  -0.11432813    2.5385193    34731.881 
 2040000   0.80302158  -0.10396177    2.5290969    34683.912 
 2050000   0.79469576 -0.098773953    2.5374994    34782.898 
 2060000   0.80819604  -0.11362281    2.5441244    34740.241 
 2070000    0.8057378  -0.10741396    2.5325866    34659.828 
 2080000   0.79971595  -0.10810688    2.5446718    34765.679 
 2090000   0.80041637  -0.10479015    2.5207919    34631.231 
 2100000   0.80013486  -0.10364951    2.5340033    34735.397 
 2110000   0.80016323  -0.10419256    2.5244263    34699.935 
 2120000   0.79446157  -0.10880838     2.526889    34724.824 
 2130000   0.80011668   -0.1103488    2.5252468      34696.8 
 2140000   0.80361299  -0.10531793    2.5242843    34697.711 
 2150000   0.79799166  -0.10672957    2.5242322    34738.413 
 2160000   0.80073632  -0.11100948    2.5298546    34757.617 
 2170000   0.80145971  -0.11325332    2.5134824    34622.766 
 2180000   0.79996263   -0.1077395    2.5315752    34739.543 
 2190000   0.79721798  -0.11514342    2.5137896    34687.805 
 2200000    0.8029696  -0.11527416    2.5423221    34772.231 
 2210000   0.79448178  -0.11185418    2.5118968    34644.411 
 2220000   0.80279751  -0.10879372    2.5230144    34673.957 
 2230000   0.79945866  -0.10838222    2.4938128    34573.455 
 2240000   0.80743135  -0.11363867    2.5551764    34746.332 
 2250000    0.8040313  -0.10110116    2.5396946    34720.698 
 2260000   0.80001241  -0.11092026    2.5279183    34725.779 
 2270000   0.80019939  -0.10594941    2.5283971    34710.347 
 2280000   0.79594083  -0.11143317    2.5070293    34589.187 
 2290000   0.79822345   -0.1106376    2.5274206    34697.335 
 2300000   0.80657294  -0.11036974    2.5293224    34693.171 
 2310000   0.80478988  -0.10562078    2.5272549    34652.374 
 2320000   0.79785356  -0.11329479    2.5379367    34780.367 
 2330000   0.79690627  -0.11851239    2.5114849    34615.698 
 2340000   0.79925622  -0.10821869    2.5305156    34710.934 
 2350000   0.79517344  -0.10920645     2.509046    34651.702 
 2360000    0.8014326  -0.10298477    2.5159613    34634.393 
 2370000   0.79273041  -0.10658813    2.5008713    34624.685 
 2380000   0.79670547  -0.11460498    2.5198649    34682.517 
 2390000   0.80127507  -0.11025758    2.5041625    34565.237 
 2400000   0.80326864  -0.10924625    2.5254878    34624.421 
 2410000   0.80173837  -0.11163689     2.514413    34600.515 
 2420000   0.79873841  -0.11117803    2.5239746    34659.493 
 2430000   0.79895594  -0.10981424    2.5211622    34641.211 
 2440000   0.80410193  -0.11601721    2.5204288     34639.08 
 2450000   0.80548092  -0.10244364    2.5229916    34583.794 
 2460000    0.7993761  -0.11243518    2.5024375    34567.912 
 2470000   0.79983045  -0.11657654    2.5070083     34543.18 
 2480000   0.80317287  -0.11538281    2.5144922    34577.074 
 2490000   0.78997306  -0.10145625    2.5053846    34662.487 
 2500000   0.80271514  -0.10906482     2.517269     34590.01 
 2510000   0.78556476  -0.12128809    2.5056841    34693.038 
 2520000   0.80045964 -0.098802958    2.5159336    34663.697 
 2530000   0.79492699   -0.1100714    2.5062831    34650.161 
 2540000   0.80281802  -0.10548404    2.5071255    34535.043 
 2550000   0.80311987  -0.10840041    2.5162536    34582.408 
 2560000   0.79905958  -0.11042244    2.5291606    34741.534 
 2570000   0.80455276  -0.10752531    2.5165007    34595.562 
 2580000   0.79440317  -0.11206904     2.490507    34534.455 
 2590000   0.79930371  -0.11509527    2.4959932    34531.614 
 2600000   0.80346778  -0.11538036    2.5364497    34714.815 
 2610000   0.79980131  -0.10934819    2.5235415    34658.862 
 2620000   0.80082295  -0.10978581    2.5158871    34628.934 
 2630000   0.79829183  -0.11417439    2.5097175    34646.227 
 2640000   0.79849516  -0.10237482     2.517014    34650.365 
 2650000    0.7990031  -0.10647789    2.5130472    34642.953 
 2660000   0.80154981  -0.10257747    2.5213599     34634.32 
 2670000   0.79875025  -0.11120037    2.5110368    34597.138 
 2680000   0.80034119  -0.10917724    2.5241239    34663.206 
 2690000   0.80505983  -0.10943327    2.5315905    34645.589 
 2700000   0.80269294  -0.11016971    2.5200661    34626.416 
 2710000   0.80003526  -0.10939254    2.5163154    34604.916 
 2720000   0.80507083  -0.11181263    2.5142145     34560.21 
 2730000     0.796709  -0.10957136    2.5294912    34752.254 
 2740000   0.79523666   -0.1052596    2.5022997    34599.335 
 2750000   0.79687885  -0.11546219    2.5230037    34689.335 
 2760000   0.79692271  -0.11160442    2.5288759    34701.966 
 2770000    0.8026623  -0.10742774    2.5227386    34634.098 
 2780000   0.79802584  -0.11150845    2.5113998    34650.068 
 2790000   0.79806681  -0.11614083    2.5224556    34692.125 
 2800000   0.79793912  -0.10248605    2.5052622    34585.009 
 2810000   0.79483765  -0.11214104    2.4852744    34462.401 
 2820000   0.80090598   -0.1159485    2.5117187    34584.549 
 2830000   0.80362358  -0.11430304    2.5131799    34555.469 
 2840000   0.80306699  -0.10740451    2.5193603    34608.084 
 2850000   0.80596806  -0.11708436    2.5335742    34698.357 
 2860000   0.79876332  -0.10624584    2.5244519    34669.578 
 2870000   0.80127067  -0.11249174    2.5179414    34646.237 
 2880000   0.79559948  -0.11311704     2.498404    34569.203 
 2890000   0.80301755  -0.11361896     2.504067    34509.142 
 2900000   0.79842856  -0.10780636    2.5018321    34516.471 
 2910000   0.80269536  -0.12103859    2.5068436    34574.066 
 2920000   0.80298724   -0.1160399    2.5140509    34562.763 
 2930000   0.79813208  -0.10063843    2.5208279    34597.575 
 2940000   0.80029824  -0.11347161    2.5004759    34550.255 
 2950000   0.80508474  -0.11321869    2.5176821    34619.621 
 2960000   0.80171314  -0.11244819    2.4975149     34528.26 
 2970000   0.79414382  -0.10116846    2.5059485    34625.068 
 2980000   0.79904727   -0.1145419    2.5154774    34575.285 
 2990000   0.80364542  -0.10229491    2.5085145    34599.168 
 3000000   0.80984536  -0.10559668    2.5145009    34572.314 
 3010000   0.79572836  -0.11799361    2.5056991    34594.638 
 3020000   0.79993459  -0.11524927    2.4956219    34505.748 
 3030000   0.80060654  -0.10774001    2.5139935    34676.725 
 3040000   0.80246012  -0.11194756    2.5134478    34577.742 
 3050000    0.7884505  -0.11121079    2.4938351    34588.792 
 3060000   0.80198317   -0.1062964    2.5200313    34643.357 
 3070000   0.80164664  -0.10237619     2.525583    34645.108 
 3080000   0.80519599  -0.11163105    2.5067667    34530.733 
 3090000   0.80020292   -0.1090589    2.5097965    34590.391 
 3100000   0.80814425  -0.10248477    2.5118694     34577.62 
 3110000   0.80193676   -0.1115138    2.5031789    34574.418 
 3120000   0.80238991   -0.1120226    2.5119007    34587.207 
 3130000   0.80073032   -0.1075774    2.5202654    34605.841 
 3140000     0.801057  -0.10716103    2.5061541    34562.481 
 3150000   0.79393727  -0.10366259    2.5069971    34600.811 
 3160000   0.80034627  -0.10634066    2.5034581    34519.261 
 3170000   0.79520051  -0.10565508    2.4892307    34487.151 
 3180000   0.80619622  -0.11009925     2.523069    34629.476 
 3190000   0.80486065  -0.10987819    2.5311012    34706.779 
 3200000   0.80119453   -0.1103767    2.5225271    34635.242 
 3210000   0.80038101  -0.11236072    2.5176148    34603.224 
 3220000   0.80047273  -0.10275968    2.5105775    34615.129 
 3230000   0.79881117  -0.11019941     2.519856    34653.439 
 3240000   0.80144138  -0.11187574    2.5072692    34611.634 
 3250000   0.79680764  -0.11258542    2.5032591    34611.143 
 3260000   0.79957996  -0.11161265    2.5010097    34578.238 
 3270000   0.80097711  -0.10943533    2.5089155    34524.773 
 3280000   0.79340843  -0.10433206     2.509754     34635.73 
 3290000   0.79602025  -0.11515346    2.5150092    34688.342 
 3300000   0.80356315  -0.10922111    2.5110797    34558.928 
 3310000   0.79447149  -0.10581544    2.5064106      34574.5 
 3320000   0.80046396  -0.10868075    2.4938674    34496.513 
 3330000   0.80067462  -0.11229237    2.4965755    34531.391 
 3340000   0.80665791  -0.10106309    2.4986956    34508.409 
 3350000   0.80235286  -0.11023581    2.5192915    34659.056 
 3360000   0.80049092  -0.10425548    2.4836137    34475.374 
 3370000   0.79935416  -0.11481658    2.4967377    34496.399 
 3380000   0.79742884  -0.10715635    2.4864179    34488.157 
 3390000   0.80071039  -0.10601343    2.5178135    34627.753 
 3400000   0.79990439  -0.12176813    2.5010692    34520.059 
 3410000   0.79818077  -0.11703984    2.4964618    34507.976 
 3420000   0.79662155  -0.11017985    2.5024573    34585.064 
 3430000   0.79492208  -0.11084345    2.4899298    34531.448 
 3440000    0.8060883  -0.11277986    2.5179863    34664.416 
 3450000   0.80072593  -0.10546844    2.5184098    34631.472 
 3460000   0.80717376  -0.10643172    2.5309675    34675.414 
 3470000   0.80432319  -0.11052924    2.5032869    34526.307 
 3480000   0.80120864  -0.11529409    2.4983165    34564.526 
 3490000   0.79895086  -0.10599376    2.4820208    34460.236 
 3500000   0.79977225  -0.10510388    2.5076807    34600.381 
 3510000   0.79961349  -0.10700363     2.505976    34588.078 
 3520000   0.80373024  -0.11383411    2.5142476    34606.879 
 3530000   0.79815947  -0.10438694    2.5087561    34609.516 
 3540000   0.79570587  -0.11504937    2.4885888    34478.525 
 3550000   0.79702374  -0.11629373    2.4873055     34466.82 
 3560000   0.79567708  -0.10457108    2.4926533     34526.37 
 3570000    0.7954272  -0.10928117    2.4920526     34519.51 
 3580000   0.80713361  -0.10953801    2.5149209    34581.291 
 3590000   0.79929496  -0.11370874    2.4949688    34536.893 
 3600000   0.79739958  -0.11043142     2.490659    34571.345 
 3610000   0.80235173  -0.11254403    2.5014863    34536.613 
 3620000   0.80481631  -0.11445416    2.5074222     34581.83 
 3630000   0.80108715  -0.10875358    2.5033144    34566.287 
 3640000   0.79733086  -0.10559445     2.502328    34548.792 
 3650000   0.79833222  -0.11840593    2.5079244    34601.882 
 3660000   0.80549402  -0.10686745    2.5251011    34625.168 
 3670000   0.79086461  -0.10720274    2.4902358    34546.803 
 3680000   0.80214931  -0.10357034    2.5032814    34552.825 
 3690000   0.79864154  -0.11704337    2.4897788    34504.497 
 3700000    0.8083298  -0.10730928    2.4998976    34502.841 
 3710000   0.80241805   -0.1143641    2.5046338    34545.697 
 3720000   0.80466232  -0.11818316    2.4988648    34514.717 
 3730000   0.80049906  -0.11453135    2.4972429    34535.475 
 3740000    0.8010267  -0.11187078    2.5103413    34542.503 
 3750000    0.7979052  -0.10485942    2.5046254    34603.924 
 3760000   0.79852328  -0.11603672    2.5105825    34639.986 
 3770000   0.79757001  -0.10980686    2.5109095    34599.475 
 3780000   0.80290706  -0.11799538    2.5220258    34620.599 
 3790000   0.79634427  -0.10578094    2.5016653    34543.939 
 3800000    0.8011059  -0.11647833    2.5054134    34567.419 
 3810000   0.80149443   -0.1094288    2.4910126    34502.784 
 3820000   0.79709763  -0.10328833    2.5011057     34553.74 
 3830000   0.79449515  -0.10779729      2.51854    34683.465 
 3840000   0.80094032  -0.11562664    2.5108847    34607.398 
 3850000   0.80383759  -0.10844607    2.5064356    34550.679 
 3860000   0.79604149  -0.10718247    2.4922304    34503.107 
 3870000    0.7997946  -0.10889852    2.5086305    34628.408 
 3880000   0.79626145  -0.11030281    2.4960978     34554.68 
 3890000   0.80162638  -0.11052165    2.5111118    34585.966 
 3900000   0.79982939  -0.10964471    2.5104917    34593.719 
 3910000   0.80854913  -0.11182752    2.5310105    34678.211 
 3920000   0.79651676  -0.11609484    2.4977995    34575.029 
 3930000   0.80645728  -0.11689375    2.5146714    34549.662 
 3940000   0.79962086  -0.11688667    2.5061546    34586.924 
 3950000   0.79703863  -0.10841145    2.4981033    34530.989 
 3960000   0.79558052  -0.10807152     2.495042    34572.958 
 3970000   0.79931972  -0.10778467    2.4835253    34493.952 
 3980000   0.80410062  -0.11059991    2.5054779    34544.901 
 3990000   0.80302262  -0.11610703    2.5168167    34602.908 
 4000000   0.80614529  -0.10759297    2.5245986     34628.37 
 4010000   0.79953174  -0.11039673    2.4994747    34469.414 
 4020000   0.79920458  -0.11422361    2.5073064    34537.776 
 4030000   0.79630013  -0.11477589    2.4840463    34496.972 
 4040000    0.8050859  -0.11605462    2.5251087    34662.851 
 4050000   0.79953803  -0.10879237     2.507223    34598.615 
 4060000   0.80320406  -0.10926806    2.5034972    34562.193 
 4070000   0.79849767  -0.11561579    2.5194693    34666.886 
 4080000   0.80015684  -0.11388631    2.4975784    34514.061 
 4090000   0.80027291   -0.1122774    2.4923747    34459.958 
 4100000   0.79765571  -0.11787114    2.4984064     34526.54 
 4110000   0.79849474   -0.1126543    2.5058075    34573.817 
 4120000   0.79930692  -0.10449602    2.4906041    34497.986 
 4130000    0.7975002  -0.11468074    2.4915614    34519.524 
 4140000   0.79972689  -0.11383723    2.5033837    34540.706 
 4150000   0.79889352  -0.11249434    2.5030528    34574.389 
 4160000   0.80264525  -0.10256824    2.4965883    34467.086 
 4170000   0.79650794  -0.10773862    2.4894755    34543.563 
 4180000   0.80795156  -0.10694413    2.5126358    34555.695 
 4190000   0.79833483  -0.10371524    2.4856094    34428.774 
 4200000    0.7896609  -0.11318838    2.4858557    34528.673 
 4210000   0.80385233  -0.11615344    2.5150274    34598.981 
 4220000   0.80056064  -0.11268943    2.5029009    34524.717 
 4230000   0.80158738  -0.11081826    2.5089885    34571.375 
 4240000   0.80072545  -0.10808394     2.503291    34549.426 
 4250000   0.80200411   -0.1087907    2.5203755    34643.211 
 4260000   0.79714411  -0.10637409    2.4734145     34416.37 
 4270000   0.79968908  -0.11107951    2.4895598    34451.054 
 4280000   0.80043002  -0.11233469    2.5050414    34615.334 
 4290000   0.79948355  -0.12085608    2.5124686    34642.789 
 4300000   0.80072982  -0.10684069     2.490409    34489.462 
 4310000   0.80179275  -0.11409154    2.4930085    34508.488 
 4320000   0.79927525  -0.10953744    2.4824843    34466.492 
 4330000    0.8023206   -0.1061107    2.4943629    34486.354 
 4340000   0.80740935  -0.11257734     2.520024    34594.478 
 4350000   0.80361031  -0.10996311    2.5036371    34483.214 
 4360000    0.8017555  -0.11400935     2.513388    34565.828 
 4370000   0.79962664  -0.11053907    2.4942637    34474.412 
 4380000   0.80114409  -0.11759549    2.5077911    34545.984 
 4390000   0.80298735  -0.11648117    2.5163997     34566.61 
 4400000   0.80138978  -0.11319522    2.5060969    34593.503 
 4410000   0.80291483  -0.10908899    2.4952726    34490.133 
 4420000   0.79645331  -0.12003981    2.4976702    34550.947 
 4430000    0.7961977  -0.11615747    2.5076497    34615.976 
 4440000   0.79980197  -0.10944668    2.4842995    34439.939 
 4450000   0.80248905  -0.10795529    2.4964836    34477.964 
 4460000   0.78831177  -0.10383134    2.4798143    34513.941 
 4470000   0.79189423   -0.1049125    2.4885326    34538.826 
 4480000   0.79344959  -0.11432454    2.4938852    34571.225 
 4490000    0.7939167  -0.11031846    2.4869077    34527.267 
 4500000   0.79604052  -0.11169651    2.4836937    34461.304 
 4510000   0.80136522  -0.11151319     2.499629    34510.331 
 4520000   0.79936784  -0.10618336    2.4983495    34523.182 
 4530000   0.79770266  -0.12106194    2.5128167    34618.629 
 4540000   0.80268917  -0.11372859    2.5162749    34618.102 
 4550000   0.79931773  -0.10868547    2.4905324    34463.636 
 4560000    0.7923664  -0.11012889    2.5023924    34589.061 
 4570000   0.80150476  -0.11885137    2.5009818    34554.205 
 4580000   0.80771999  -0.10721541    2.5094743    34580.285 
 4590000    0.8033699  -0.11170408    2.5148291    34594.977 
 4600000   0.80794617  -0.11574811    2.5167802    34566.443 
 4610000   0.79710101   -0.1006279      2.49246    34497.863 
 4620000   0.80418186  -0.10366121    2.5004301    34487.871 
 4630000   0.79948682  -0.10968482     2.500294    34556.581 
 4640000   0.80187592  -0.11164614    2.5364509    34747.087 
 4650000    0.8000474  -0.11324132    2.4967013    34511.713 
 4660000   0.79984233  -0.11535533    2.5151393    34591.509 
 4670000   0.79945221  -0.11504628    2.5018023    34582.086 
 4680000   0.80146407  -0.11197133    2.4914103    34484.887 
 4690000   0.80419577  -0.10835474    2.5073485    34556.437 
 4700000    0.7984003  -0.10610356    2.5005217    34600.134 
 4710000   0.80249559  -0.11664584    2.4967568    34495.485 
 4720000   0.80453923  -0.10836898    2.5091122    34570.489 
 4730000   0.80171778  -0.11446274    2.5083658    34555.093 
 4740000    0.7991736  -0.10583703    2.5012534    34528.145 
 4750000   0.80474426  -0.10869121    2.5031112      34560.9 
 4760000   0.80443081  -0.10560071    2.5068898    34529.031 
 4770000   0.80752859  -0.11403251    2.5247223    34664.206 
 4780000   0.79897516  -0.12431181    2.5124712    34595.376 
 4790000   0.79757875  -0.11085994    2.5110255     34610.23 
 4800000   0.80108526  -0.11302664     2.498357    34528.679 
 4810000   0.79577055  -0.11052063    2.4945997    34539.483 
 4820000   0.80017007  -0.11131614    2.5002848    34516.269 
 4830000   0.79930007  -0.10578116    2.4981538    34515.641 
 4840000   0.80064101  -0.11478196    2.4906621    34485.357 
 4850000   0.80390524  -0.11067169    2.5056897    34591.635 
 4860000   0.80363976  -0.10609259    2.4880572     34464.95 
 4870000   0.79727071   -0.1095747    2.4971466    34567.079 
 4880000   0.79675088  -0.10831147    2.4959794    34537.538 
 4890000   0.79429513  -0.11360748      2.49017    34508.082 
 4900000   0.79879718  -0.11373237    2.5024262    34577.504 
 4910000   0.80560617  -0.10404323    2.5339728    34689.631 
 4920000   0.79676645  -0.11328193    2.5090146    34626.233 
 4930000   0.79733977  -0.11173845    2.4982977    34568.054 
 4940000     0.803879  -0.10911056    2.5025552    34537.124 
 4950000   0.80247101  -0.10720106    2.5098066     34570.58 
 4960000   0.80406319  -0.09933097    2.4904704    34408.383 
 4970000   0.79954498  -0.11217708    2.4931723    34509.838 
 4980000   0.80134902  -0.10858841    2.5120652    34609.887 
 4990000   0.80414874  -0.11525535    2.4946907    34493.456 
 5000000   0.80388769  -0.11165559    2.4962169    34489.506 
 5010000   0.79485411  -0.10835086     2.474247    34436.473 
 5020000    0.8037996  -0.11598008     2.509653    34535.562 
 5030000   0.80264805  -0.11500473    2.5129847    34571.224 
 5040000     0.798339  -0.10686198    2.4916224    34535.517 
 5050000   0.81087452  -0.10939492    2.5319271    34635.231 
 5060000   0.79860029  -0.11271158    2.4948823    34520.594 
 5070000   0.79570668  -0.11057779    2.5096732    34611.344 
 5080000    0.8002888  -0.10953294    2.5086977    34599.424 
 5090000   0.79844476  -0.10535895     2.501638    34536.332 
 5100000   0.79417249  -0.11662391    2.4815016    34505.663 
 5110000   0.80147898  -0.11278074    2.5215238     34643.92 
 5120000   0.79737144   -0.1072169    2.4875664    34507.329 
 5130000   0.80048208  -0.10901744    2.5160772    34594.711 
 5140000   0.80060297  -0.11421873    2.5059084    34544.005 
 5150000   0.80356345  -0.10759756      2.50792    34526.702 
 5160000   0.79743652  -0.10683788     2.493136    34550.008 
 5170000   0.80327643  -0.10855471    2.5061597    34552.678 
 5180000   0.79106703  -0.11037035    2.4906911    34559.939 
 5190000   0.80299451   -0.1070406    2.5142185    34557.209 
 5200000   0.80108731  -0.10332635    2.4975171    34523.123 
 5210000   0.79504352  -0.10989986    2.5155787    34601.898 
 5220000   0.79982357  -0.11375338    2.4991724    34534.481 
 5230000   0.79966796  -0.11973582     2.512583    34640.736 
 5240000   0.80030823   -0.1070381    2.4911696    34488.593 
 5250000   0.80311906   -0.1143663    2.4980917     34521.12 
 5260000   0.80028871   -0.1123045    2.4963939    34534.081 
 5270000   0.79956706   -0.1138124    2.5236868    34681.968 
 5280000   0.80285305  -0.10698095    2.5036296    34564.512 
 5290000   0.79616352  -0.11575491    2.4992367    34543.332 
 5300000   0.80275253  -0.10947693    2.5103816    34554.069 
 5310000   0.80184003  -0.10533827    2.4936328    34463.048 
 5320000   0.80459214   -0.1083724    2.4890209    34453.347 
 5330000   0.80505522     -0.11051    2.5211862    34634.488 
 5340000   0.79419896  -0.11753029    2.5092582    34621.101 
 5350000   0.80291273  -0.11807578    2.5020907    34557.908 
 5360000   0.80507173  -0.10688419    2.5040552     34538.97 
 5370000   0.80280322  -0.10804154    2.5007352    34521.209 
 5380000   0.79785492  -0.10959782    2.5137071    34624.537 
 5390000   0.79348639  -0.10443306    2.5115808    34636.966 
 5400000   0.81163076  -0.11101955    2.5179233    34570.832 
 5410000   0.79877017  -0.10620755    2.5006137    34552.929 
 5420000   0.79699206  -0.11522458    2.4925441    34517.918 
 5430000   0.79995184   -0.1033172    2.4991518    34529.366 
 5440000   0.79873635  -0.10840632    2.4935724    34538.183 
 5450000   0.79682533  -0.11506321    2.4848459    34502.851 
 5460000   0.79936272  -0.12016268     2.507793    34562.938 
 5470000   0.79880072  -0.10247764    2.5036302    34601.521 
 5480000   0.80555845  -0.11410127    2.5278734    34678.763 
 5490000   0.79988903   -0.1205233    2.4984075     34494.52 
 5500000   0.79367998 -0.099140134    2.4679843    34359.179 
 5510000   0.80339921  -0.11144055    2.5085361    34555.092 
 5520000   0.79949091  -0.10705322    2.4863864    34404.669 
 5530000   0.79959442  -0.11343457    2.5116072     34573.54 
 5540000   0.79535588  -0.11307462    2.4940323    34524.021 
 5550000   0.79647402  -0.12090726    2.4882872    34523.102 
 5560000   0.79267016  -0.10841935    2.4975259    34599.165 
 5570000   0.80295179  -0.11289537    2.5110058    34566.776 
 5580000   0.79373586  -0.10345595    2.4861363     34490.18 
 5590000   0.79602176  -0.10783702    2.4984649    34552.287 
 5600000   0.80278944  -0.11086673    2.5098389     34574.67 
 5610000   0.79421872  -0.10708936    2.5004876    34590.756 
 5620000   0.79740371  -0.10648802    2.4825821    34414.455 
 5630000   0.80206158  -0.10617817    2.4948209    34441.397 
 5640000   0.79939779  -0.10756492    2.4977594    34519.741 
 5650000    0.8078804  -0.11689501     2.508078    34531.771 
 5660000    0.8024393  -0.10523532    2.4875186    34469.324 
 5670000   0.80469699   -0.1169133    2.4968102    34464.792 
 5680000    0.7977258  -0.10859461    2.5048909    34591.605 
 5690000   0.80606449   -0.1162731     2.499203    34487.012 
 5700000   0.80137687  -0.10725054    2.5058735    34602.576 
 5710000    0.8046881  -0.10755053    2.5092558    34556.847 
 5720000   0.79900485  -0.10211292    2.4855363    34460.069 
 5730000   0.79669958  -0.11151811    2.4896224    34532.196 
 5740000   0.79708131  -0.11017527    2.4996327    34593.212 
 5750000   0.79832831  -0.11132484    2.4853444    34498.284 
 5760000   0.79011824  -0.10691833    2.4668083    34437.257 
 5770000   0.79691769  -0.10818472    2.5004171    34611.986 
 5780000   0.79563941  -0.10408553     2.492282    34485.322 
 5790000   0.80337625  -0.10824486    2.5007065    34510.774 
 5800000   0.79437398  -0.12373814    2.4882049    34549.003 
 5810000   0.79742023  -0.10316767    2.5027981    34562.628 
 5820000     0.796266  -0.11365961    2.4839281    34530.997 
 5830000   0.80430476   -0.1130948    2.4921922    34436.466 
 5840000   0.80311994  -0.11843118    2.5107614     34580.35 
 5850000   0.80398637  -0.10962649    2.5085799    34539.387 
 5860000   0.80146333   -0.1142595    2.5026385    34547.975 
 5870000   0.80040604  -0.11264392    2.5115499      34659.7 
 5880000   0.80104174  -0.11446901    2.4995145    34552.226 
 5890000   0.79830857  -0.11180362    2.5015471    34554.489 
 5900000   0.79816299  -0.10154126    2.4870846    34462.348 
 5910000    0.8042563    -0.108571     2.512191    34584.333 
 5920000   0.80139851  -0.10756345    2.4936696    34485.696 
 5930000   0.79939907  -0.10749762    2.5193774    34661.001 
 5940000   0.80675588  -0.11597825    2.5101953    34565.698 
 5950000   0.79513555  -0.11383697    2.4814756    34504.616 
 5960000   0.79196184   -0.1088428    2.4698712    34445.775 
 5970000   0.79626557  -0.10480822    2.5091476     34636.45 
 5980000   0.79056328  -0.10649598    2.4781243    34482.892 
 5990000    0.7987298  -0.11037465    2.4896203    34501.779 
 6000000   0.80572928  -0.11049537    2.5085028    34617.799 
 6010000   0.79742798  -0.10190782    2.4882374    34513.208 
 6020000   0.80359838  -0.11057207    2.4876485    34429.323 
 6030000   0.80905126  -0.11533494    2.4932041    34430.069 
 6040000   0.80585091  -0.10869442    2.5057993    34538.868 
 6050000   0.79318899  -0.10318545    2.4971224    34583.465 
 6060000   0.80164548  -0.11232229    2.5045984    34587.256 
 6070000   0.79404159  -0.10741998    2.4989326     34576.15 
 6080000    0.7968855  -0.11262272     2.507593    34603.164 
 6090000   0.80013686  -0.11570807     2.494063    34496.386 
 6100000    0.8063402  -0.11440309    2.5178896    34629.472 
 6110000   0.80120641  -0.11847239     2.504651    34566.413 
 6120000   0.80101473  -0.12202537    2.5057113    34572.416 
 6130000   0.80202727  -0.11338604    2.4937326    34510.393 
 6140000   0.79997764  -0.10931299    2.4865986    34431.733 
 6150000   0.79428368  -0.11057786    2.4868176    34547.517 
 6160000   0.80095152  -0.10752197    2.4944396    34498.562 
 6170000   0.79800192   -0.1101462    2.4996281    34565.336 
 6180000   0.80043184  -0.11817493    2.4867595    34461.537 
 6190000   0.80052624  -0.11029103    2.4906159    34513.542 
 6200000   0.80379693  -0.10999598    2.5008824    34498.407 
 6210000   0.79533743  -0.10471611    2.4964437    34530.119 
 6220000   0.80328168  -0.10373812    2.5052154    34502.984 
 6230000   0.79818295  -0.11436821      2.50143    34571.727 
 6240000   0.80722999  -0.10757147    2.4934947    34432.691 
 6250000   0.80761883  -0.11393046    2.5170955     34552.13 
 6260000   0.80035618  -0.11346138    2.4913497    34506.586 
 6270000   0.80007135  -0.10699811    2.5106989    34617.433 
 6280000   0.79743005   -0.1180257    2.4733235    34422.927 
 6290000   0.79826367  -0.10262162    2.5015354    34533.693 
 6300000   0.80158912  -0.11405113    2.5021999    34519.358 
 6310000   0.80116089    -0.107137    2.4762308    34395.074 
 6320000   0.80597454  -0.10200762    2.5097593    34560.361 
 6330000   0.79564565  -0.10498795    2.4828278    34522.881 
 6340000   0.80080395  -0.10140401     2.499912    34549.147 
 6350000   0.79693747  -0.11783724    2.4808384    34445.924 
 6360000   0.80174341  -0.11606074    2.4948945    34549.212 
 6370000   0.79626431  -0.10695378    2.4942737    34560.846 
 6380000   0.79916507  -0.11251585    2.4979049    34540.807 
 6390000   0.80582079  -0.11574683    2.5122894     34590.78 
 6400000   0.79714999  -0.11339373    2.4774064    34427.041 
 6410000   0.80170569  -0.11199806    2.5019027    34561.088 
 6420000    0.7986869  -0.11085014    2.4746081    34424.322 
 6430000   0.80374103  -0.11753923    2.4952787    34504.682 
 6440000   0.79458068  -0.11429358    2.4889939    34560.227 
 6450000   0.80055742  -0.10985444    2.5175252    34616.108 
 6460000   0.79709561   -0.1149606    2.4985493    34566.665 
 6470000   0.79942127  -0.10951885    2.4904279    34510.264 
 6480000   0.80497932  -0.10511335    2.4749229     34344.59 
 6490000   0.80310459  -0.11300105     2.488103    34442.859 
 6500000    0.7991488   -0.1046358     2.486027    34464.986 
 6510000   0.79835886   -0.1094332    2.4964255    34532.529 
 6520000   0.79843794  -0.10415016    2.4917162    34488.533 
 6530000   0.79803133  -0.10752564    2.5011895    34554.275 
 6540000   0.79728328  -0.11563123    2.4797073    34471.271 
 6550000   0.79757945   -0.1105598    2.4786142    34446.935 
 6560000   0.80070025  -0.11249199    2.4803729    34438.337 
 6570000   0.80011673    -0.109713    2.5001204    34530.997 
 6580000   0.79993259  -0.11685383    2.4791937     34439.02 
 6590000   0.79233769  -0.10437242    2.4957642    34572.889 
 6600000   0.79934219  -0.10856196     2.485598    34437.817 
 6610000   0.80058941  -0.11446452    2.5006314    34556.517 
 6620000   0.79533336   -0.1119521    2.4822818     34465.98 
 6630000    0.8050002  -0.11360992    2.4956507     34480.64 
 6640000   0.80630815  -0.11947138     2.498016    34496.889 
 6650000   0.80092399  -0.11377972    2.4857181    34481.283 
 6660000   0.80693997  -0.11119058    2.5132508    34563.364 
 6670000   0.80761571   -0.1143283    2.4976926    34479.157 
 6680000   0.79980597  -0.10326736    2.4887609    34451.435 
 6690000   0.80025168  -0.10506221    2.4810027    34435.881 
 6700000   0.80792632   -0.1059451    2.4933365    34470.313 
 6710000   0.79633876  -0.11273116    2.4920123    34519.102 
 6720000   0.79799326  -0.10711532    2.4732834    34379.776 
 6730000   0.79772545  -0.11200413    2.4634047    34343.571 
 6740000   0.79862307  -0.11846785     2.484446    34460.666 
 6750000   0.80080842  -0.11855663    2.4858776    34441.719 
 6760000   0.79829912  -0.11787469    2.4918352    34481.182 
 6770000     0.795281  -0.11066774    2.4761861    34459.486 
 6780000   0.79752829  -0.10428928    2.4805624    34406.378 
 6790000   0.79760301  -0.11267326    2.4698243    34393.158 
 6800000   0.79899679  -0.10292516    2.4786534    34452.285 
 6810000   0.79761515  -0.11644273    2.4723286    34409.396 
 6820000   0.81112762  -0.11409019    2.4986878    34482.076 
 6830000   0.80481661  -0.11509625    2.4942124    34442.983 
 6840000   0.80065668  -0.10689272     2.488717    34500.501 
 6850000   0.80578659  -0.10996363    2.4939486    34510.881 
 6860000   0.80320683  -0.10989643    2.4847279    34422.356 
 6870000   0.79727017   -0.1145815    2.4836514    34463.736 
 6880000   0.79710862  -0.11648738    2.4929945    34507.885 
 6890000   0.79946213   -0.1143613    2.4992168    34519.427 
 6900000    0.7990429  -0.10827633    2.4898587    34466.607 
 6910000   0.79974262  -0.10949001    2.4831588    34445.096 
 6920000   0.80289991  -0.11161096    2.5050143    34531.964 
 6930000   0.79521895  -0.11108931    2.4720394    34441.658 
 6940000    0.7997787   -0.1086194    2.4910692    34456.617 
 6950000   0.79780394   -0.1100724    2.4831117    34467.815 
 6960000    0.8025019  -0.11097394      2.48905    34444.886 
 6970000   0.80213947  -0.10694839     2.497626    34530.303 
 6980000   0.80374256  -0.10896019    2.5034984    34529.695 
 6990000   0.79513723  -0.10423537    2.4761386    34459.587 
 7000000   0.79597661  -0.10301522    2.4784942    34428.857 
Loop time of 3935.48 on 216 procs for 5000000 steps with 27950 atoms

Performance: 548853.235 tau/day, 1270.494 timesteps/s
99.9% CPU use with 216 MPI tasks x 1 OpenMP threads

MPI task timing breakdown:
Section |  min time  |  avg time  |  max time  |%varavg| %total
---------------------------------------------------------------
Pair    | 432.47     | 465.69     | 528.85     |  76.8 | 11.83
Bond    | 8.1636     | 9.5052     | 10.823     |  16.7 |  0.24
Neigh   | 520.07     | 560.99     | 597.81     |  61.3 | 14.25
Comm    | 859.94     | 1022.7     | 1167.8     | 177.6 | 25.99
Output  | 1.9807     | 1.9856     | 2.0268     |   0.2 |  0.05
Modify  | 1504.4     | 1630.3     | 1746.2     | 114.9 | 41.43
Other   |            | 244.3      |            |       |  6.21

Nlocal:    129.398 ave 214 max 108 min
Histogram: 15 129 50 13 2 3 3 0 0 1
Nghost:    958.806 ave 1071 max 912 min
Histogram: 32 48 48 33 20 17 8 4 3 3
Neighs:    4667.92 ave 9687 max 3693 min
Histogram: 50 124 28 6 2 3 2 0 0 1

Total # of neighbors = 1008270
Ave neighs/atom = 36.0741
Ave special neighs/atom = 0.62254
Neighbor list builds = 693758
Dangerous builds = 26
System init for write_restart ...
Setting atom values ...
  1800 settings made for charge
Setting atom values ...
  1800 settings made for charge
Setting atom values ...
  950 settings made for charge
Setting atom values ...
  950 settings made for charge
System init for write_data ...
PPPM initialization ...
  using 12-bit tables for long-range coulomb (src/kspace.cpp:332)
  G vector (1/distance) = 1.11672
  grid = 81 81 81
  stencil order = 5
  estimated absolute RMS force accuracy = 0.000130558
  estimated relative force accuracy = 0.000130558
  using double precision FFTW3
  3d grid and FFT values/proc = 6859 2835
WARNING: Neighbor exclusions used with KSpace solver may give inconsistent Coulombic energies (src/neighbor.cpp:486)
Neighbor list info ...
  update every 1 steps, delay 0 steps, check yes
  max neighbors/atom: 2000, page size: 100000
  master list distance cutoff = 2.8
  ghost atom cutoff = 2.8
  binsize = 1.4, bins = 24 24 24
  2 neighbor lists, perpetual/occasional/extra = 2 0 0
  (1) pair lj/cut, perpetual
      attributes: half, newton on
      pair build: half/bin/newton
      stencil: half/bin/3d/newton
      bin: standard
  (2) pair coul/long, perpetual, skip from (1)
      attributes: half, newton on
      pair build: skip
      stencil: none
      bin: none
PPPM initialization ...
  using 12-bit tables for long-range coulomb (src/kspace.cpp:332)
  G vector (1/distance) = 1.11672
  grid = 81 81 81
  stencil order = 5
  estimated absolute RMS force accuracy = 0.000130558
  estimated relative force accuracy = 0.000130558
  using double precision FFTW3
  3d grid and FFT values/proc = 6859 2835
WARNING: Neighbor exclusions used with KSpace solver may give inconsistent Coulombic energies (src/neighbor.cpp:486)
Neighbor list info ...
  update every 1 steps, delay 0 steps, check yes
  max neighbors/atom: 2000, page size: 100000
  master list distance cutoff = 2.8
  ghost atom cutoff = 2.8
  binsize = 1.4, bins = 24 24 24
  2 neighbor lists, perpetual/occasional/extra = 2 0 0
  (1) pair lj/cut, perpetual
      attributes: half, newton on
      pair build: half/bin/newton
      stencil: half/bin/3d/newton
      bin: standard
  (2) pair coul/long, perpetual, skip from (1)
      attributes: half, newton on
      pair build: skip
      stencil: none
      bin: none
Setting up Verlet run ...
  Unit style    : lj
  Current step  : 7000000
  Time step     : 0.005
Per MPI rank memory allocation (min/avg/max) = 14.67 | 15.96 | 16.72 Mbytes
Step Temp Press TotEng Volume 
 7000000   0.79597661 -0.081216668    3.0388118    34428.857 
 7010000     0.805954  -0.15203155    2.3784914    34428.857 
 7020000      0.80072  -0.16863975     2.273323    34428.857 
 7030000   0.80010997 -0.039179286    2.2357174    34428.857 
 7040000   0.80242309   -0.1340557    2.1987859    34428.857 
 7050000   0.80069489 -0.095815798    2.1812835    34428.857 
 7060000   0.79953225  -0.13094237    2.1595789    34428.857 
 7070000   0.80112734  -0.11573809    2.1424113    34428.857 
 7080000   0.79875967  -0.18919702    2.1216282    34428.857 
 7090000   0.79695601  -0.18579313    2.1019822    34428.857 
 7100000   0.79565747   -0.1628722    2.1023934    34428.857 
 7110000   0.80122877  -0.11213336    2.0961497    34428.857 
 7120000   0.79678495  -0.13596656    2.0745731    34428.857 
 7130000   0.79637924  -0.15564266     2.061916    34428.857 
 7140000    0.7952766  -0.15796484     2.060205    34428.857 
 7150000   0.79935197  -0.18953888    2.0462517    34428.857 
 7160000    0.8021051 -0.086574263     2.059478    34428.857 
 7170000   0.80797786  -0.19264021    2.0632241    34428.857 
 7180000   0.80086075  -0.14345705    2.0426098    34428.857 
 7190000   0.79529631   -0.2096561     2.023926    34428.857 
 7200000   0.80605088  -0.15034794    2.0470303    34428.857 
 7210000    0.8042487 -0.098928867    2.0353447    34428.857 
 7220000   0.79709109  -0.13989184    2.0173508    34428.857 
 7230000   0.79796582  -0.16459166    2.0101897    34428.857 
 7240000   0.80146543 -0.043977484     2.011974    34428.857 
 7250000   0.79294414  -0.14047651    2.0033963    34428.857 
 7260000   0.80143008  -0.12751822     2.012482    34428.857 
 7270000   0.79528435  -0.13970581    2.0033338    34428.857 
 7280000   0.79813733 -0.090694177    2.0007248    34428.857 
 7290000   0.80065335  -0.16333277    2.0012645    34428.857 
 7300000    0.7993712 -0.089056671    1.9958121    34428.857 
 7310000   0.79897888  -0.12884543    1.9917509    34428.857 
 7320000   0.79742314  -0.14490966    1.9827284    34428.857 
 7330000   0.79824569  -0.14959922    1.9875445    34428.857 
 7340000   0.79552238  -0.17070891    1.9777627    34428.857 
 7350000   0.80105258  -0.10447252    1.9888229    34428.857 
 7360000   0.79844498  -0.11911248    1.9781412    34428.857 
 7370000   0.79344661   -0.1528354    1.9717315    34428.857 
 7380000   0.79610526 -0.059200813    1.9759127    34428.857 
 7390000   0.80529356  -0.18023184    1.9811884    34428.857 
 7400000   0.81001757  -0.16440106    1.9914876    34428.857 
 7410000   0.80027832  -0.10115825    1.9764189    34428.857 
 7420000   0.80972362 -0.077868613    1.9902824    34428.857 
 7430000   0.80239253  -0.11456048    1.9765415    34428.857 
 7440000   0.79899234  -0.15404517     1.969021    34428.857 
 7450000   0.79791274  -0.13073369    1.9736182    34428.857 
 7460000   0.79960408 -0.089657489     1.972743    34428.857 
 7470000    0.8001676 -0.062789282    1.9713332    34428.857 
 7480000   0.80842236  -0.11182369    1.9829247    34428.857 
 7490000    0.8051853  -0.15092502      1.97465    34428.857 
 7500000   0.79768092  -0.13717824    1.9641952    34428.857 
 7510000   0.80301348  -0.10528748    1.9793088    34428.857 
 7520000   0.79572888   -0.1056299     1.964692    34428.857 
 7530000    0.7969205  -0.19581044    1.9581414    34428.857 
 7540000    0.7973066 -0.080921637    1.9651694    34428.857 
 7550000    0.7982564  -0.15214539    1.9522717    34428.857 
 7560000   0.79809502  -0.12859205    1.9630067    34428.857 
 7570000     0.801513  -0.12559049    1.9607668    34428.857 
 7580000    0.8009963   -0.1331532    1.9513768    34428.857 
 7590000   0.79569952  -0.13038353    1.9509131    34428.857 
 7600000   0.79592077 -0.088742544     1.956049    34428.857 
 7610000   0.79249571  -0.14096946    1.9460716    34428.857 
 7620000   0.80008828 -0.073209064     1.965141    34428.857 
 7630000   0.79998209  -0.16169883    1.9587024    34428.857 
 7640000   0.79891942 -0.081901816    1.9539548    34428.857 
 7650000   0.79965587 -0.046400401    1.9569198    34428.857 
 7660000   0.80950876  -0.15610853    1.9767223    34428.857 
 7670000   0.80142071  -0.15879568    1.9496858    34428.857 
 7680000   0.80623994 -0.089180519    1.9602389    34428.857 
 7690000   0.80024902  -0.09065879    1.9533889    34428.857 
 7700000   0.80240197  -0.12360405    1.9600103    34428.857 
 7710000     0.797605  -0.13810659    1.9437395    34428.857 
 7720000   0.80178308  -0.15428361    1.9491045    34428.857 
 7730000   0.80219803   -0.1156176    1.9488292    34428.857 
 7740000   0.79419346  -0.19301104    1.9315106    34428.857 
 7750000   0.79650389 -0.070477498    1.9429698    34428.857 
 7760000   0.80322588  -0.15968849    1.9505206    34428.857 
 7770000   0.79847916  -0.10208152    1.9426522    34428.857 
 7780000   0.79772618  -0.16153962    1.9448449    34428.857 
 7790000   0.79708605  -0.10451503    1.9444005    34428.857 
 7800000   0.80699376 -0.086254745    1.9571182    34428.857 
 7810000   0.80305185  -0.12007919    1.9432039    34428.857 
 7820000   0.79581664  -0.17667654    1.9337467    34428.857 
 7830000   0.80556255  -0.14141487    1.9521076    34428.857 
 7840000   0.79829263  -0.11605339    1.9514327    34428.857 
 7850000   0.80744466  -0.11542994    1.9643248    34428.857 
 7860000   0.79818954  -0.14812698    1.9443035    34428.857 
 7870000   0.80214072  -0.14122298    1.9480145    34428.857 
 7880000   0.79319368  -0.08947053    1.9320659    34428.857 
 7890000   0.80172359   -0.1557567    1.9503833    34428.857 
 7900000   0.79552198  -0.23490414     1.931178    34428.857 
 7910000   0.80822318 -0.093562532    1.9507849    34428.857 
 7920000   0.80889689 -0.061463993    1.9580334    34428.857 
 7930000   0.80216485  -0.15905367    1.9380227    34428.857 
 7940000   0.79239474 -0.099485818    1.9391382    34428.857 
 7950000   0.80290319 -0.095674749    1.9483652    34428.857 
 7960000   0.80256928 -0.080525912    1.9507505    34428.857 
 7970000   0.80286742 -0.064185728    1.9382407    34428.857 
 7980000   0.79931829  -0.11182028    1.9411923    34428.857 
 7990000   0.79746014 -0.087152504     1.943676    34428.857 
 8000000   0.80475613  -0.07717309    1.9451953    34428.857 
 8010000   0.79665676  -0.11822282    1.9399168    34428.857 
 8020000   0.79886474 -0.076007052    1.9424721    34428.857 
 8030000   0.79466131  -0.17483561    1.9274147    34428.857 
 8040000   0.80609324  -0.10290291     1.948998    34428.857 
 8050000   0.79747583 -0.046971676    1.9337005    34428.857 
 8060000   0.80987437 -0.097853731    1.9476146    34428.857 
 8070000   0.80252483  -0.14524141    1.9364305    34428.857 
 8080000   0.80670322 -0.099385612    1.9400002    34428.857 
 8090000   0.80092757  -0.12197986    1.9378998    34428.857 
 8100000   0.80094123  -0.10916777    1.9317198    34428.857 
 8110000   0.79631547  -0.20679868    1.9171648    34428.857 
 8120000   0.80149217 -0.085942785     1.934665    34428.857 
 8130000   0.80208327  -0.11902586     1.931346    34428.857 
 8140000   0.80915606 -0.097387126    1.9434963    34428.857 
 8150000   0.79892237  -0.16541274    1.9203218    34428.857 
 8160000   0.79920473 -0.081501118    1.9322287    34428.857 
 8170000   0.79169449  -0.15874519    1.9039419    34428.857 
 8180000   0.80216619 -0.095910299    1.9285289    34428.857 
 8190000   0.79663725  -0.11737237    1.9195841    34428.857 
 8200000   0.79715157  -0.17692944    1.9194492    34428.857 
 8210000   0.80439793 -0.088935526    1.9316295    34428.857 
 8220000   0.79643444  -0.16010535    1.9212279    34428.857 
 8230000   0.80082796  -0.10500066    1.9284563    34428.857 
 8240000   0.80320813  -0.13913322    1.9356256    34428.857 
 8250000   0.80485705 -0.088659998      1.93535    34428.857 
 8260000   0.79941749  -0.12374558    1.9354121    34428.857 
 8270000   0.79975967  -0.18502046    1.9205468    34428.857 
 8280000   0.80556889 -0.085880758    1.9379571    34428.857 
 8290000   0.80539727  -0.11544982    1.9308089    34428.857 
 8300000   0.79860047  -0.13985825    1.9238541    34428.857 
 8310000   0.79719836  -0.13295586     1.920789    34428.857 
 8320000   0.79978677  -0.19276922    1.9205436    34428.857 
 8330000   0.79242468 -0.088043631    1.9142253    34428.857 
 8340000   0.79376579  -0.14838765    1.9121727    34428.857 
 8350000   0.79915278   -0.1548114    1.9163747    34428.857 
 8360000    0.8004685 -0.096560328     1.924931    34428.857 
 8370000   0.80134981  -0.16151364    1.9191453    34428.857 
 8380000   0.79934864 -0.088677604    1.9263558    34428.857 
 8390000   0.80242934  -0.14796148    1.9328451    34428.857 
 8400000   0.80027084 -0.062393825    1.9322096    34428.857 
 8410000   0.79853429 -0.072496332    1.9253136    34428.857 
 8420000   0.81155975 -0.084156929    1.9332377    34428.857 
 8430000   0.80150796  -0.11002326    1.9258013    34428.857 
 8440000   0.79005995 -0.069357053    1.9138897    34428.857 
 8450000     0.803631 -0.092395254    1.9256181    34428.857 
 8460000   0.79645421  -0.14620922    1.9215811    34428.857 
 8470000   0.79986081  -0.14790689    1.9225263    34428.857 
 8480000   0.80314413  -0.15353198    1.9201466    34428.857 
 8490000   0.80833003  -0.12344983    1.9284789    34428.857 
 8500000   0.80085305  -0.13663001    1.9174856    34428.857 
 8510000   0.79928568  -0.11295577    1.9209635    34428.857 
 8520000   0.79982958  -0.11646672     1.922872    34428.857 
 8530000    0.7957609  -0.11656021    1.9096383    34428.857 
 8540000   0.79838909 -0.097608254    1.9170265    34428.857 
 8550000   0.79959149  -0.14266314    1.9114426    34428.857 
 8560000   0.79413421  -0.10381663      1.90589    34428.857 
 8570000   0.79494227  -0.16048928    1.9120374    34428.857 
 8580000   0.80404162  -0.13395958     1.921099    34428.857 
 8590000   0.79832226  -0.13425231    1.9143315    34428.857 
 8600000   0.79747007  -0.10457098    1.9129208    34428.857 
 8610000   0.80429236 -0.087335865    1.9339199    34428.857 
 8620000   0.79901637  -0.19511257    1.9040258    34428.857 
 8630000   0.79853666 -0.089960947    1.9061152    34428.857 
 8640000   0.79876414  -0.11815313    1.9102298    34428.857 
 8650000   0.80122563  -0.14033511    1.9118586    34428.857 
 8660000    0.7857551  -0.13922005    1.8975921    34428.857 
 8670000   0.79667931  -0.09515663    1.9115199    34428.857 
 8680000   0.80239443  -0.12987998    1.9225263    34428.857 
 8690000   0.79800258  -0.14923755    1.9067491    34428.857 
 8700000   0.80190887  -0.15101412    1.9157968    34428.857 
 8710000   0.79689947  -0.13087786    1.9060262    34428.857 
 8720000   0.80012045 -0.094151414     1.921081    34428.857 
 8730000    0.7973956  -0.10593893    1.9176684    34428.857 
 8740000   0.79693646 -0.092414692    1.9158151    34428.857 
 8750000   0.80150249 -0.087113535    1.9203522    34428.857 
 8760000   0.80369728  -0.20828475    1.9214554    34428.857 
 8770000   0.79416189  -0.11055576      1.91223    34428.857 
 8780000   0.80109726  -0.12708595    1.9131308    34428.857 
 8790000   0.80032031 -0.071306561    1.9115211    34428.857 
 8800000   0.80835181  -0.12554023    1.9280849    34428.857 
 8810000   0.80329557  -0.15522201    1.9144282    34428.857 
 8820000   0.79463736  -0.12446995    1.9068645    34428.857 
 8830000   0.79718053  -0.21044763    1.9087453    34428.857 
 8840000    0.8074449  -0.16597344     1.922932    34428.857 
 8850000   0.79981686  -0.12169339     1.914747    34428.857 
 8860000    0.7974675  -0.13692281    1.9164998    34428.857 
 8870000   0.80477003 -0.091443367    1.9286077    34428.857 
 8880000   0.79736492   -0.1170061    1.9077082    34428.857 
 8890000   0.79994324  -0.11606642    1.9097272    34428.857 
 8900000   0.79866719   -0.1357257    1.9091263    34428.857 
 8910000   0.80524899 -0.041277237    1.9329261    34428.857 
 8920000   0.79331412   -0.1187821    1.9084684    34428.857 
 8930000   0.80269833  -0.17526885    1.9169308    34428.857 
 8940000   0.79967215  -0.12486311    1.9147268    34428.857 
 8950000    0.7981008 -0.057831092    1.9098014    34428.857 
 8960000   0.80673318  -0.10789654    1.9244586    34428.857 
 8970000   0.79877042 -0.093582056    1.9064154    34428.857 
 8980000   0.79686424  -0.17269184    1.9073869    34428.857 
 8990000   0.80172514  -0.14957498    1.9207784    34428.857 
 9000000   0.79440569  -0.12533485     1.892542    34428.857 
 9010000   0.79586327  -0.11995131    1.9112677    34428.857 
 9020000   0.80334355  -0.10584521    1.9152975    34428.857 
 9030000   0.79718743 -0.094691074    1.9061317    34428.857 
 9040000   0.80233387  -0.15104233    1.9180665    34428.857 
 9050000    0.7993397  -0.12822577    1.9049208    34428.857 
 9060000   0.80473376  -0.10887924    1.9091708    34428.857 
 9070000   0.80439812  -0.10829066     1.918264    34428.857 
 9080000   0.79989398  -0.12271049    1.9200144    34428.857 
 9090000   0.80029589 -0.047570939    1.9169129    34428.857 
 9100000   0.80007009 -0.089721446     1.909248    34428.857 
 9110000   0.80141512  -0.17604516    1.9096782    34428.857 
 9120000   0.79800246  -0.13938231    1.9053997    34428.857 
 9130000   0.79363687  -0.18334607    1.8919321    34428.857 
 9140000   0.79869232  -0.20200699    1.9141624    34428.857 
 9150000   0.80246318 -0.085294496    1.9161205    34428.857 
 9160000   0.80152912  -0.15247183    1.9121975    34428.857 
 9170000   0.81038122 -0.093625307    1.9235479    34428.857 
 9180000   0.80522634  -0.17864565    1.9110073    34428.857 
 9190000   0.80490014  -0.15167536    1.9154412    34428.857 
 9200000     0.797276  -0.13854084    1.9002944    34428.857 
 9210000   0.80479316  -0.11263348    1.9026717    34428.857 
 9220000   0.80351056 -0.088113858    1.9075674    34428.857 
 9230000   0.80275138  -0.17873549    1.9072222    34428.857 
 9240000   0.80503564 -0.090513034    1.9112053    34428.857 
 9250000   0.79692546 -0.084102408    1.9081334    34428.857 
 9260000   0.80079222  -0.15110216    1.9054641    34428.857 
 9270000   0.80157071 -0.079851975    1.9037662    34428.857 
 9280000   0.79600417  -0.12718546    1.8973063    34428.857 
 9290000   0.79585072  -0.12265436    1.9000262    34428.857 
 9300000   0.80032599  -0.08850027    1.9020586    34428.857 
 9310000   0.79999321   -0.1490869    1.9011143    34428.857 
 9320000   0.80071394  -0.13290944    1.9050371    34428.857 
 9330000   0.79885492   -0.2229304    1.8948385    34428.857 
 9340000   0.80130714   -0.1352671    1.9120095    34428.857 
 9350000   0.80282021  -0.12537647    1.9120935    34428.857 
 9360000   0.80003862  -0.12689412    1.9035497    34428.857 
 9370000   0.79387258  -0.10887172    1.8971662    34428.857 
 9380000   0.80197933  -0.12768741    1.9010701    34428.857 
 9390000   0.80644379 -0.003486689    1.9175172    34428.857 
 9400000   0.79742606  -0.10741191     1.910126    34428.857 
 9410000   0.80193954  -0.12046342    1.9007567    34428.857 
 9420000   0.80547404 -0.094498025    1.9180153    34428.857 
 9430000   0.80449206  -0.17313873    1.8997052    34428.857 
 9440000   0.80002852  -0.16624699    1.8971493    34428.857 
 9450000   0.80140016  -0.13550869    1.9076839    34428.857 
 9460000   0.79251448 -0.054475333     1.896153    34428.857 
 9470000   0.80365988 -0.085571796    1.9151531    34428.857 
 9480000   0.79103244  -0.12382688    1.8857674    34428.857 
 9490000   0.80136163 -0.078131506    1.9072354    34428.857 
 9500000   0.80041202 -0.058617113    1.9054257    34428.857 
 9510000   0.79860711  -0.12801319     1.893406    34428.857 
 9520000   0.80151163  -0.13510753    1.9043915    34428.857 
 9530000   0.80051131 -0.098186068    1.9064868    34428.857 
 9540000   0.80185366  -0.15996577    1.9122244    34428.857 
 9550000   0.80283675 -0.094191629    1.9076901    34428.857 
 9560000   0.80282002  -0.18494184    1.9102529    34428.857 
 9570000   0.79649405  -0.15205798    1.8925703    34428.857 
 9580000   0.80128061 -0.092595146     1.901219    34428.857 
 9590000   0.80245737  -0.16201129    1.9072043    34428.857 
 9600000   0.80068059  -0.16439548    1.8982368    34428.857 
 9610000   0.79038969  -0.14593726    1.8851776    34428.857 
 9620000   0.80055925  -0.13326497    1.8962878    34428.857 
 9630000   0.80015345  -0.10679379    1.9052914    34428.857 
 9640000   0.80352465  -0.12771078    1.9038328    34428.857 
 9650000   0.79787061  -0.14517306    1.9062599    34428.857 
 9660000   0.80021772  -0.21053626     1.893927    34428.857 
 9670000   0.79867296 -0.092177444    1.9091399    34428.857 
 9680000   0.80176021  -0.14894153    1.9022586    34428.857 
 9690000   0.80492747  -0.13137654    1.9115181    34428.857 
 9700000   0.80219637  -0.11316197    1.9085401    34428.857 
 9710000   0.80094191  -0.13573471    1.9000992    34428.857 
 9720000   0.79950192  -0.19302565     1.889475    34428.857 
 9730000    0.7972116 -0.059175696    1.9102197    34428.857 
 9740000   0.79008657  -0.11047011    1.8833291    34428.857 
 9750000   0.80253422  -0.14056111    1.9031939    34428.857 
 9760000    0.7995504  -0.15546927    1.8929874    34428.857 
 9770000   0.80338605 -0.047186325     1.908923    34428.857 
 9780000   0.79656713 -0.091831282    1.8938846    34428.857 
 9790000   0.79829687  -0.11045969    1.8956341    34428.857 
 9800000   0.79721036 -0.073128555    1.9015896    34428.857 
 9810000   0.79830119  -0.18288969     1.897885    34428.857 
 9820000   0.80102726  -0.10593953    1.9097383    34428.857 
 9830000   0.80413291 -0.049375458    1.9106123    34428.857 
 9840000   0.80824162  -0.11292116    1.9142446    34428.857 
 9850000    0.8058691  -0.15333848    1.9087271    34428.857 
 9860000   0.79462533  -0.10560273     1.895753    34428.857 
 9870000   0.79700857  -0.06824942    1.9009189    34428.857 
 9880000   0.79533458  -0.16367768    1.8948737    34428.857 
 9890000   0.79649702  -0.11640704    1.8959464    34428.857 
 9900000   0.80034094  -0.16493642    1.8939877    34428.857 
 9910000   0.80149574  -0.13665916    1.9012084    34428.857 
 9920000   0.80007488  -0.11256581    1.8948878    34428.857 
 9930000   0.79976321  -0.10227276    1.9012495    34428.857 
 9940000    0.8058238  -0.10139692    1.9097448    34428.857 
 9950000   0.79440604  -0.13898002    1.8799757    34428.857 
 9960000    0.7972364  -0.13077027    1.8947705    34428.857 
 9970000   0.79204014  -0.12759813    1.8869072    34428.857 
 9980000   0.80049667  -0.15100232    1.8941066    34428.857 
 9990000   0.79884848  -0.10469359    1.8950513    34428.857 
10000000   0.79901295  -0.14965799    1.8881638    34428.857 
10010000   0.79669586  -0.12272398    1.8927791    34428.857 
10020000   0.79932748  -0.11015393    1.9024002    34428.857 
10030000   0.80665157  -0.11632053    1.9059576    34428.857 
10040000   0.79895686 -0.069459436    1.9000958    34428.857 
10050000   0.80267019  -0.18752521    1.8924386    34428.857 
10060000   0.80183821  -0.15607664    1.8973132    34428.857 
10070000   0.80372142  -0.19093563    1.8974946    34428.857 
10080000   0.79604783  -0.16291207    1.8907307    34428.857 
10090000    0.8009422  -0.11089643    1.8966768    34428.857 
10100000   0.79516299  -0.16374143     1.896312    34428.857 
10110000   0.79212282  -0.17697659    1.8807787    34428.857 
10120000   0.79405609  -0.16557982    1.8936531    34428.857 
10130000   0.79905743  -0.16654165    1.8900489    34428.857 
10140000   0.80412227  -0.14414768    1.9041244    34428.857 
10150000   0.79479861 -0.087117877    1.8952446    34428.857 
10160000   0.80085229  -0.11734735    1.8918907    34428.857 
10170000   0.79675021 -0.056389077    1.8978576    34428.857 
10180000    0.8007785   -0.1785513    1.9011732    34428.857 
10190000   0.79442487 -0.053925825    1.8931042    34428.857 
10200000   0.79156585  -0.13593665    1.8796472    34428.857 
10210000   0.79782307  -0.08310011    1.8958384    34428.857 
10220000   0.79489588  -0.14487266    1.8916261    34428.857 
10230000   0.79599858  -0.13357604    1.8908627    34428.857 
10240000   0.80436325 -0.081969629     1.905863    34428.857 
10250000   0.80295196 -0.089018397    1.9050233    34428.857 
10260000   0.80726964  -0.10046204    1.9104238    34428.857 
10270000   0.79806687  -0.10734965    1.8901565    34428.857 
10280000   0.79975045  -0.05616461    1.8911032    34428.857 
10290000   0.79580853  -0.20235619    1.8847623    34428.857 
10300000   0.79659279  -0.12193297    1.8868937    34428.857 
10310000   0.79419524  -0.13041108    1.8885229    34428.857 
10320000   0.79712578 -0.091781336    1.8935038    34428.857 
10330000   0.80076178 -0.094591202    1.8958718    34428.857 
10340000   0.80491519  -0.16628064    1.8974015    34428.857 
10350000   0.79757772 -0.053553822    1.8958206    34428.857 
10360000   0.80172841   -0.1189486    1.8919273    34428.857 
10370000    0.8016915  -0.12632078    1.8848888    34428.857 
10380000   0.80021592  -0.10001331     1.892737    34428.857 
10390000    0.8009391  -0.07928096    1.8866366    34428.857 
10400000   0.80293807  -0.11136067    1.8926054    34428.857 
10410000   0.79519974  -0.16245839    1.8831377    34428.857 
10420000   0.79973577  -0.13312828    1.8942432    34428.857 
10430000   0.80185028  -0.10959079    1.8969729    34428.857 
10440000   0.79805893  -0.14967607      1.89327    34428.857 
10450000   0.80262979  -0.15301098    1.8963645    34428.857 
10460000   0.80459974 -0.098759485    1.9012758    34428.857 
10470000   0.79425494  -0.10635252    1.8851164    34428.857 
10480000   0.79379449 -0.078569293    1.8744033    34428.857 
10490000   0.81126339 -0.073013696    1.8982959    34428.857 
10500000   0.80027692  -0.14389631     1.885458    34428.857 
10510000   0.79764338 -0.084694639    1.8954886    34428.857 
10520000   0.79737595   -0.1213322    1.8904722    34428.857 
10530000   0.80092926  -0.17922154    1.8818502    34428.857 
10540000   0.80150282  -0.10783023    1.8881598    34428.857 
10550000   0.79855321 -0.051027149    1.8944308    34428.857 
10560000   0.80334616  -0.14425839    1.8805273    34428.857 
10570000   0.78951013 -0.080584796    1.8678746    34428.857 
10580000   0.80419631  -0.18998099    1.8875823    34428.857 
10590000   0.79923853  -0.15454214    1.8735665    34428.857 
10600000    0.7973756  -0.12936985    1.8767106    34428.857 
10610000   0.80175118  -0.15511127    1.8816558    34428.857 
10620000   0.80439625  -0.11204379    1.8902827    34428.857 
10630000   0.80075647   -0.1668282    1.8783616    34428.857 
10640000    0.7994265  -0.13284516     1.870876    34428.857 
10650000   0.80494449  -0.16535944    1.8798135    34428.857 
10660000   0.80205528  -0.06258164    1.8837894    34428.857 
10670000    0.7921322  -0.11436896    1.8713068    34428.857 
10680000   0.79464171  -0.10807549    1.8766212    34428.857 
10690000   0.79919566 -0.070078188    1.8732433    34428.857 
10700000   0.80356901 -0.067005814    1.8904993    34428.857 
10710000   0.79391522  -0.16100543    1.8572092    34428.857 
10720000   0.78747499  -0.11723097    1.8702707    34428.857 
10730000   0.79592428 -0.084242209    1.8752028    34428.857 
10740000   0.79602707  -0.17174619    1.8722624    34428.857 
10750000   0.79904837  -0.10939366    1.8733722    34428.857 
10760000   0.79592038  -0.10303715    1.8805857    34428.857 
10770000   0.80026334  -0.10852217     1.888749    34428.857 
10780000   0.80253811 -0.097956634    1.8904834    34428.857 
10790000    0.8028194  -0.13927002    1.8864564    34428.857 
10800000   0.80126173  -0.15702333    1.8816101    34428.857 
10810000   0.80428976   -0.1018684    1.8950048    34428.857 
10820000   0.80167999  -0.11124149    1.8787535    34428.857 
10830000   0.80495727  -0.13651408    1.8846866    34428.857 
10840000   0.79299394  -0.11536656    1.8674603    34428.857 
10850000   0.79941474 -0.088643424    1.8761205    34428.857 
10860000   0.79708009 -0.084477052    1.8788837    34428.857 
10870000   0.80285842  -0.14325519    1.8772204    34428.857 
10880000   0.79385539  -0.13420662    1.8664837    34428.857 
10890000   0.79855817  -0.09914577    1.8730552    34428.857 
10900000   0.79900381 -0.092887373    1.8802296    34428.857 
10910000   0.80048128  -0.20261789    1.8691541    34428.857 
10920000   0.80509324 -0.073179597    1.8852765    34428.857 
10930000   0.80490896  -0.10800706    1.8873371    34428.857 
10940000   0.79941123  -0.11397824    1.8743201    34428.857 
10950000   0.79976098  -0.10326171    1.8738866    34428.857 
10960000     0.803718 -0.098174031    1.8893189    34428.857 
10970000   0.80166321   -0.1008038    1.8866929    34428.857 
10980000   0.79836226  -0.15008539    1.8730042    34428.857 
10990000   0.79631403  -0.11073138    1.8748911    34428.857 
11000000    0.7984263  -0.10390011    1.8763507    34428.857 
11010000   0.79533041  -0.11994456    1.8652286    34428.857 
11020000   0.80489365  -0.11620711    1.8774538    34428.857 
11030000   0.80110799 -0.095567369    1.8807241    34428.857 
11040000   0.79773826  -0.11562229    1.8805491    34428.857 
11050000   0.80493586  -0.15739532    1.8825702    34428.857 
11060000   0.79904474  -0.18885968    1.8745694    34428.857 
11070000    0.8000771  -0.12145083    1.8741462    34428.857 
11080000   0.80189276  -0.12865173    1.8805527    34428.857 
11090000   0.79983632  -0.17915528    1.8789819    34428.857 
11100000   0.80060361  -0.14953087    1.8805566    34428.857 
11110000   0.79421355  -0.17222782    1.8657491    34428.857 
11120000   0.79922382  -0.15868362    1.8703755    34428.857 
11130000   0.79848994  -0.10672525    1.8737108    34428.857 
11140000   0.79765256 -0.073448282    1.8816727    34428.857 
11150000   0.80055102  -0.18979682    1.8731255    34428.857 
11160000   0.80207021 -0.039003813    1.8818759    34428.857 
11170000   0.80302676 -0.075283373    1.8813075    34428.857 
11180000    0.7976605 -0.090751161    1.8727862    34428.857 
11190000   0.80491683 -0.086712472    1.8787346    34428.857 
11200000   0.79248491  -0.12811274    1.8650388    34428.857 
11210000    0.7989576  -0.16131336    1.8675548    34428.857 
11220000   0.80185864  -0.10820577    1.8803902    34428.857 
11230000    0.7964649  -0.07761933    1.8725368    34428.857 
11240000   0.79344034  -0.21538527    1.8540235    34428.857 
11250000   0.79516067  -0.10374825    1.8705204    34428.857 
11260000   0.79986725  -0.11828268    1.8813603    34428.857 
11270000   0.80121153  -0.13800829    1.8755899    34428.857 
11280000   0.80307075 -0.075987572    1.8766572    34428.857 
11290000   0.79973947 -0.093835006    1.8695014    34428.857 
11300000   0.79686575  -0.10936461    1.8651222    34428.857 
11310000   0.79675789  -0.12299037    1.8739996    34428.857 
11320000   0.79924614  -0.13527255    1.8749489    34428.857 
11330000   0.80694124  -0.15854757    1.8834928    34428.857 
11340000   0.80704196  -0.13824073    1.8884424    34428.857 
11350000   0.80042366  -0.11392594    1.8746173    34428.857 
11360000   0.80044388 -0.090899131     1.875357    34428.857 
11370000   0.79713624  -0.16007818    1.8681417    34428.857 
11380000   0.79768336  -0.15883712    1.8680894    34428.857 
11390000    0.8032784  -0.13893118    1.8745146    34428.857 
11400000   0.79996587  -0.13143391    1.8662059    34428.857 
11410000   0.80088101  -0.10599582    1.8792629    34428.857 
11420000   0.79528439  -0.17436678    1.8712212    34428.857 
11430000   0.80141595  -0.10277458    1.8782911    34428.857 
11440000   0.80471832 -0.088309924    1.8813225    34428.857 
11450000   0.79624416  -0.13142185    1.8698667    34428.857 
11460000    0.7960949  -0.16501623    1.8639218    34428.857 
11470000   0.80577192 -0.098884427    1.8775033    34428.857 
11480000   0.80594968  -0.15121805    1.8789042    34428.857 
11490000   0.79886185  -0.16847582    1.8689533    34428.857 
11500000   0.79862093 -0.097938034    1.8787803    34428.857 
11510000   0.80159139  -0.10087712    1.8770312    34428.857 
11520000   0.79503265  -0.11723581    1.8646652    34428.857 
11530000   0.80021233 -0.083627257    1.8743298    34428.857 
11540000   0.80137167 -0.096249091    1.8790335    34428.857 
11550000   0.79627218  -0.15893342    1.8664066    34428.857 
11560000   0.80503455   -0.1864993    1.8816806    34428.857 
11570000   0.80001201  -0.15685394    1.8753759    34428.857 
11580000    0.7977819  -0.10538921    1.8718479    34428.857 
11590000   0.79957177  -0.15104054    1.8717888    34428.857 
11600000   0.80196969 -0.095496623    1.8732947    34428.857 
11610000   0.80005986  -0.12985329    1.8718534    34428.857 
11620000   0.80305019 -0.079727871    1.8833588    34428.857 
11630000   0.80550885 -0.081368955    1.8807578    34428.857 
11640000   0.80742795  -0.15580561    1.8811219    34428.857 
11650000   0.80361144 -0.082307607    1.8782778    34428.857 
11660000   0.79887465 -0.041006367    1.8852534    34428.857 
11670000   0.80248129 -0.064249679    1.8737069    34428.857 
11680000   0.80419281 -0.098806604    1.8830561    34428.857 
11690000   0.79472236  -0.11640558    1.8591586    34428.857 
11700000   0.79652422  -0.10703613     1.866834    34428.857 
11710000   0.79682725 -0.060087528    1.8794249    34428.857 
11720000   0.80592378  -0.13504465    1.8824858    34428.857 
11730000   0.79455741  -0.11396228     1.866248    34428.857 
11740000   0.80179751 -0.090140158    1.8777844    34428.857 
11750000   0.80104549 -0.073468233    1.8750274    34428.857 
11760000   0.79695561  -0.11088111    1.8740389    34428.857 
11770000   0.80464344  -0.14327401     1.881571    34428.857 
11780000   0.80626695  -0.12533772    1.8837627    34428.857 
11790000   0.80251952 -0.060312217    1.8848169    34428.857 
11800000   0.79481801  -0.14814814    1.8691532    34428.857 
11810000   0.79769424   -0.1603094    1.8693729    34428.857 
11820000   0.80124122 -0.057195625    1.8692246    34428.857 
11830000   0.80299739 -0.012226798    1.8844857    34428.857 
11840000   0.80494786  -0.12691111    1.8767387    34428.857 
11850000   0.79929089  -0.14136814    1.8731144    34428.857 
11860000   0.80093042 -0.047947912    1.8765989    34428.857 
11870000    0.7989562  -0.10142771    1.8612559    34428.857 
11880000   0.79508207  -0.14427425    1.8602599    34428.857 
11890000   0.80369732 -0.054673589    1.8793929    34428.857 
11900000   0.80077352  -0.14218429    1.8731896    34428.857 
11910000   0.79776814  -0.15767959    1.8634319    34428.857 
11920000    0.8015166 -0.035430202    1.8766973    34428.857 
11930000   0.79746299  -0.14468826    1.8691504    34428.857 
11940000   0.79979348  -0.16670361    1.8619578    34428.857 
11950000    0.8005661  -0.14417284    1.8688924    34428.857 
11960000   0.80761682 -0.093569465    1.8898911    34428.857 
11970000   0.79947623  -0.17280675    1.8650079    34428.857 
11980000   0.80200634  -0.16063961    1.8730255    34428.857 
11990000   0.79501732 -0.097993891    1.8634323    34428.857 
12000000   0.78655152  -0.19094368    1.8411295    34428.857 
Loop time of 39016.7 on 216 procs for 5000000 steps with 27950 atoms

Performance: 55360.964 tau/day, 128.150 timesteps/s
99.9% CPU use with 216 MPI tasks x 1 OpenMP threads

MPI task timing breakdown:
Section |  min time  |  avg time  |  max time  |%varavg| %total
---------------------------------------------------------------
Pair    | 436.49     | 532.72     | 703.29     | 181.9 |  1.37
Bond    | 6.3119     | 8.7685     | 14.229     |  39.4 |  0.02
Kspace  | 33766      | 34635      | 35120      | 139.4 | 88.77
Neigh   | 575.11     | 607.6      | 642.88     |  56.4 |  1.56
Comm    | 1115.4     | 1462.3     | 2216.4     | 528.6 |  3.75
Output  | 2.7419     | 2.7434     | 2.7937     |   0.2 |  0.01
Modify  | 1245.9     | 1467.3     | 1748.4     | 293.8 |  3.76
Other   |            | 300.3      |            |       |  0.77

Nlocal:    129.398 ave 197 max 103 min
Histogram: 11 68 72 21 17 15 5 6 0 1
Nghost:    955.759 ave 1167 max 840 min
Histogram: 16 50 36 33 22 27 16 11 3 2
Neighs:    4806.71 ave 10829 max 3165 min
Histogram: 44 89 32 21 15 10 2 2 0 1

Total # of neighbors = 1038250
Ave neighs/atom = 37.1467
Ave special neighs/atom = 0.62254
Neighbor list builds = 672306
Dangerous builds = 0
System init for write_restart ...
PPPM initialization ...
  using 12-bit tables for long-range coulomb (src/kspace.cpp:332)
  G vector (1/distance) = 1.11672
  grid = 81 81 81
  stencil order = 5
  estimated absolute RMS force accuracy = 0.000130558
  estimated relative force accuracy = 0.000130558
  using double precision FFTW3
  3d grid and FFT values/proc = 6859 2835
WARNING: Neighbor exclusions used with KSpace solver may give inconsistent Coulombic energies (src/neighbor.cpp:486)
Neighbor list info ...
  update every 1 steps, delay 0 steps, check yes
  max neighbors/atom: 2000, page size: 100000
  master list distance cutoff = 2.8
  ghost atom cutoff = 2.8
  binsize = 1.4, bins = 24 24 24
  2 neighbor lists, perpetual/occasional/extra = 2 0 0
  (1) pair lj/cut, perpetual
      attributes: half, newton on
      pair build: half/bin/newton
      stencil: half/bin/3d/newton
      bin: standard
  (2) pair coul/long, perpetual, skip from (1)
      attributes: half, newton on
      pair build: skip
      stencil: none
      bin: none
Total wall time: 12:12:35
