950
Atoms. Timestep: 0
H 2.230980 11.429100 8.011020
H 2.991700 10.728800 8.062180
H 3.990030 10.498700 8.211230
H 4.958460 10.800500 8.418230
H 5.637510 11.553400 8.627720
H 6.143660 7.518420 25.255600
H 1.911700 12.412100 8.071450
H 2.895080 12.448000 8.249480
H 3.878460 12.483800 8.427500
H 3.435080 11.606300 8.244840
H 3.338460 13.325500 8.432140
H 4.321840 13.361400 8.610160
H 5.845220 12.555600 8.783550
H 4.861840 12.519700 8.605530
H 4.418460 11.642200 8.422870
H 2.119420 13.414300 8.227290
H 1.046970 15.103700 8.581210
H 2.798460 14.167200 8.436770
H 3.766900 14.469000 8.643770
H 4.765220 14.238900 8.792820
H 5.525940 13.538500 8.843980
H 1.528550 16.203000 8.890590
H 1.989010 15.317500 8.953610
H 2.684290 16.005800 9.292230
H 2.946510 16.984200 9.506340
H 1.329340 14.844100 16.575900
H 1.311610 14.825800 16.588800
H 1.052950 16.746300 15.433500
H 1.119360 15.882200 15.932400
H 1.976990 15.592100 16.384400
H 1.981070 15.621000 16.367400
H 1.074540 16.729200 15.439700
H 1.123270 15.865500 15.941200
H 2.171010 16.537900 15.925900
H 2.184870 16.504900 15.942400
H 4.141830 20.185700 0.857904
H 3.408960 20.474800 1.814590
H 2.946950 20.507000 0.928298
H 4.376090 20.225600 1.865550
H 2.441830 20.723900 1.763640
H 1.979820 20.756100 0.877346
H 1.474700 20.973100 1.712690
H 4.092060 20.399100 2.845880
H 1.936710 20.940900 2.598990
H 1.431600 21.157900 3.434330
H 2.392060 20.937300 3.751620
H 0.741825 21.262200 2.669380
H 3.365860 20.659600 3.536230
H 2.903840 20.691800 2.649940
H 2.007300 17.036300 9.166950
H 1.068090 17.088400 8.827560
H 1.546840 17.921700 9.103930
H 2.025590 18.755100 9.380290
H 2.705410 17.990500 9.538580
H 1.089210 19.073100 9.073910
H 1.099310 17.837300 14.847400
H 1.142800 17.818000 14.851500
H 1.848260 17.349200 15.369500
H 1.879530 17.319700 15.381400
H 2.491600 20.510600 32.334300
H 3.452060 20.290000 32.651600
H 0.791595 21.048800 33.240100
H 1.517800 20.788300 32.549700
H 1.216870 24.046100 16.044100
H 1.243550 24.030100 16.019100
H 2.214060 23.809300 16.190300
H 2.241230 23.794500 16.163700
H 3.228760 24.092000 16.253900
H 3.202270 24.105200 16.278100
H 1.210730 25.752900 15.843100
H 1.329220 25.274600 15.925600
H 1.723440 24.907000 15.989800
H 2.180540 25.797200 15.972500
H 2.197300 24.803300 16.081400
H 2.203330 25.783800 15.960500
H 2.716050 24.937900 16.107200
H 3.048620 25.325800 16.128300
H 3.195940 25.814700 16.077900
H 3.916700 24.854500 16.284000
H 3.941530 24.842700 16.265500
H 4.165930 25.856300 16.206500
H 4.188540 25.845700 16.195400
H 1.312450 26.268600 15.816800
H 1.177900 27.475700 15.667100
H 1.158800 27.489200 15.667000
H 1.690620 26.629800 15.813800
H 2.163770 26.791100 15.863700
H 2.147010 27.785000 15.754800
H 2.165430 27.773100 15.757300
H 3.883180 26.842300 16.066300
H 2.683220 26.660700 15.931200
H 3.163120 27.537500 15.901900
H 3.031860 26.319700 16.019400
H 3.144200 27.548300 15.901000
H 3.903630 26.832000 16.062300
H 3.415750 23.327700 19.891300
H 3.412030 23.360400 19.885300
H 4.191940 22.822200 20.302200
H 4.185650 22.789700 20.326700
H 2.761500 24.129900 19.907600
H 2.751660 24.156900 19.922500
H 2.398220 24.981300 20.371200
H 2.387780 24.998100 20.403900
H 3.631580 23.820600 20.734100
H 4.025060 23.573100 20.941200
H 4.356170 23.486800 21.337100
H 5.298460 22.989200 21.959800
H 4.572000 23.979700 22.179900
H 4.578320 23.656600 21.770000
H 5.271560 22.973300 21.996100
H 4.882430 22.686300 21.061500
H 4.864930 22.660000 21.097100
H 2.423250 25.653800 21.157900
H 2.417890 25.658700 21.200500
H 3.304920 24.240400 20.751300
H 3.858180 24.324000 21.580200
H 3.847410 24.313600 21.577000
H 3.122810 24.647400 20.974100
H 3.138030 24.991300 21.390300
H 3.338640 25.140400 21.817000
H 3.691290 25.074900 22.219100
H 2.829880 25.967200 22.057000
H 2.833920 25.961600 22.098800
H 4.063240 24.806500 22.419900
H 4.411440 24.407500 22.409000
H 5.296590 23.645800 22.782900
H 5.328580 23.649800 22.756400
H 3.509160 25.837400 22.827400
H 3.524410 25.825800 22.858100
H 4.279070 25.299400 23.262800
H 4.304320 25.287500 23.275000
H 4.964690 24.491100 23.237800
H 4.933310 24.497200 23.246500
H 5.290770 29.412000 3.718500
H 5.315370 29.421600 3.742730
H 3.757190 30.668500 3.454910
H 3.769470 30.660900 3.469820
H 4.434480 29.868300 3.432390
H 4.414720 29.870000 3.410970
H 4.493730 30.904500 4.088790
H 4.504820 30.910000 4.100070
H 5.277770 30.290400 4.236520
H 5.260510 30.276300 4.220580
H 3.494370 31.593400 3.838540
H 3.498540 31.587000 3.845010
H 6.013120 30.539500 4.866760
H 5.997050 30.512400 4.854460
H 5.240170 31.159200 4.730310
H 5.230260 31.140600 4.722670
H 5.975520 31.408300 5.360550
H 5.966800 31.376600 5.356550
H 3.696680 32.397100 4.459070
H 4.304230 32.877800 5.142930
H 3.694270 32.398400 4.457400
H 4.309920 32.864000 5.150240
H 6.045810 32.411200 6.034360
H 6.045860 32.450000 6.028230
H 4.467220 31.778800 4.593860
H 5.202570 32.027900 5.224100
H 5.200010 32.004900 5.224750
H 4.463470 31.768800 4.590870
H 5.169750 32.869200 5.726830
H 5.164970 32.896700 5.717890
H 9.636510 3.439400 0.927945
H 9.642660 3.430990 0.935294
H 9.132150 4.336020 0.811726
H 9.135110 4.327140 0.829826
H 11.512100 5.828440 3.889590
H 11.515200 5.857790 3.887710
H 10.895400 6.103520 4.633090
H 10.897100 6.088760 4.633900
H 9.991320 5.656510 6.041200
H 10.331300 4.474780 6.074390
H 9.995910 5.667640 6.051820
H 10.946300 4.472280 5.213190
H 10.939700 4.465570 5.236810
H 11.378500 4.981840 4.422350
H 11.372000 4.961050 4.437110
H 10.334500 4.465670 6.048300
H 10.610900 5.407320 5.307510
H 10.611000 5.410770 5.295820
H 9.706910 4.963750 6.703940
H 9.709710 4.986200 6.725430
H 9.241480 5.862810 7.015490
H 9.231740 5.833090 7.004410
H 7.075540 5.792830 24.863200
H 8.054680 5.460860 24.917100
H 9.051110 5.639000 25.134400
H 10.443500 2.820490 33.253600
H 11.391400 3.743680 32.135900
H 11.320500 2.657400 32.743300
H 11.032100 3.574990 32.469700
H 10.590300 3.658750 32.728500
H 10.190100 3.965990 32.841400
H 11.323000 2.659200 32.731900
H 10.437500 2.824980 33.257100
H 9.438230 6.003620 32.309500
H 9.428800 6.003670 32.338200
H 9.056830 5.268800 32.965500
H 9.059570 5.274590 32.939600
H 11.538200 4.581950 31.610800
H 10.455100 5.410180 31.922700
H 11.297100 5.019180 31.551000
H 9.936140 4.412080 32.795900
H 9.901580 4.883590 32.567900
H 10.737200 4.497010 32.203400
H 10.083000 5.250340 32.270800
H 10.884000 5.335270 31.678200
H 10.743600 4.492590 32.196200
H 10.854500 7.711940 4.030990
H 10.844500 7.734760 4.052990
H 11.319700 6.865430 3.752510
H 11.322700 6.835340 3.740940
H 9.667100 6.609390 6.122530
H 9.656020 6.594990 6.123840
H 10.568300 7.030510 4.704600
H 10.275700 6.349260 5.378460
H 10.282100 6.349070 5.378210
H 9.940430 7.287740 5.461100
H 9.953300 7.290820 5.448920
H 10.560100 7.042010 4.715720
H 9.624480 8.232570 5.519620
H 9.605120 8.226230 5.543740
H 10.217000 8.232850 4.708620
H 10.232900 8.223370 4.682040
H 9.052080 6.869710 6.866840
H 9.036310 6.840730 6.869210
H 9.192270 7.737100 6.319310
H 9.172970 7.716680 6.334570
H 6.376060 6.545950 24.987100
H 7.131440 7.441510 25.391200
H 7.597380 6.578710 25.195000
H 8.119230 7.364590 25.526800
H 9.107010 7.287670 25.662400
H 8.585170 6.501790 25.330600
H 9.797840 6.279500 25.456800
H 10.094800 7.210750 25.798000
H 6.440610 8.449680 25.596800
H 7.187350 9.090180 25.919200
H 7.653290 8.227380 25.723000
H 8.641070 8.150470 25.858600
H 8.183780 9.268320 26.136500
H 9.162910 8.936350 26.190400
H 9.862390 8.183230 26.066500
H 11.049700 6.160190 31.135300
H 11.030900 6.173540 31.153100
H 10.166700 6.327770 31.649100
H 10.151300 6.334820 31.674900
H 7.246760 12.719100 4.259150
H 7.239120 12.735700 4.281120
H 7.223640 12.722200 4.284200
H 8.092960 12.146300 4.092980
H 8.065590 12.144900 4.111890
H 8.078830 12.155000 4.109490
H 9.085120 11.932300 4.297050
H 9.057850 11.925300 4.309300
H 9.070210 11.931700 4.307250
H 7.941990 13.112300 4.884600
H 7.942230 13.102400 4.866950
H 8.346090 12.812300 4.801820
H 8.861410 12.709000 4.885900
H 8.857530 12.710200 4.897660
H 9.280570 12.800900 5.157660
H 9.556890 13.092300 5.493710
H 9.560410 13.086800 5.501130
H 10.476100 12.698900 5.512660
H 10.460800 12.682700 5.516860
H 9.934560 12.122100 4.823560
H 9.947620 12.125600 4.821400
H 9.957400 12.134600 4.816690
H 10.476000 12.684800 5.514190
H 7.318020 14.836800 6.132820
H 6.757610 13.502400 4.780080
H 6.773270 13.497400 4.751040
H 6.776070 13.518200 4.776150
H 6.792370 14.276500 5.466650
H 6.813770 14.292900 5.461940
H 6.799350 14.272500 5.436850
H 7.692100 13.491000 5.135920
H 7.729320 13.890800 5.475010
H 7.718530 13.879100 5.455800
H 8.414010 14.262400 6.063610
H 8.432190 14.267400 6.078480
H 7.972590 14.158300 5.825850
H 8.626580 13.479600 5.491750
H 8.637710 13.485700 5.474750
H 8.644860 13.488800 5.488070
H 9.333190 13.869000 6.082560
H 9.347730 13.865400 6.091540
H 9.561070 13.468200 5.847590
H 7.318610 14.837100 6.159950
H 7.342110 14.852100 6.154730
H 9.187580 14.814300 6.871620
H 9.210900 14.822700 6.866650
H 9.182460 14.825100 6.856530
H 8.219520 15.046000 6.668890
H 8.190300 15.039000 6.652460
H 8.195310 15.033900 6.674200
H 8.907080 14.146900 6.181690
H 10.028700 14.252200 6.690360
H 10.029500 14.237000 6.699310
H 10.050600 14.242000 6.695020
H 10.513700 13.459400 6.199980
H 10.495600 13.456800 6.203430
H 10.502200 13.474000 6.198470
H 11.433900 16.973600 10.323700
H 11.201400 17.704800 8.476730
H 11.054200 17.363600 9.443000
H 6.631090 26.912900 20.018800
H 6.632990 26.912400 20.036500
H 7.246900 26.306300 19.464100
H 7.257450 26.309500 19.457300
H 7.540410 27.315800 20.123100
H 7.546180 27.309800 20.127100
H 8.185690 26.075600 19.093700
H 8.203280 26.083700 19.102000
H 9.197810 26.282100 19.024400
H 9.215160 26.295900 19.048300
H 8.449740 27.718600 20.227300
H 8.322530 26.891400 19.655700
H 8.326510 26.901100 19.664700
H 8.459370 27.707100 20.217700
H 9.235840 27.304000 19.768900
H 9.235720 27.288700 19.746200
H 10.012100 26.870300 19.274800
H 10.021900 26.889300 19.310500
H 10.410300 27.682800 19.777900
H 10.407500 27.705000 19.818400
H 6.508460 27.731400 20.657400
H 6.492030 27.732200 20.636300
H 6.176110 29.440500 4.317690
H 6.150610 29.417200 4.295100
H 6.981800 30.731300 5.615610
H 6.966150 30.687700 5.606790
H 6.786060 29.919900 5.003210
H 6.763840 29.884100 4.986260
H 6.703330 31.612700 5.990430
H 6.710870 31.657400 5.990790
H 7.697990 29.671900 16.064100
H 7.710590 29.672500 16.050300
H 6.792840 29.881900 16.520700
H 6.804640 29.860500 16.514800
H 7.436610 30.534200 16.897800
H 7.887590 30.442600 16.672500
H 9.022490 31.225700 16.981200
H 8.712460 29.895900 15.915600
H 8.704740 29.874900 15.933600
H 8.390520 30.551900 16.598200
H 8.810260 30.824900 16.722400
H 9.541800 30.470900 16.146600
H 9.543340 30.436600 16.164100
H 9.976390 31.243400 16.681600
H 9.989090 31.206300 16.693800
H 6.231840 30.448600 17.180900
H 7.114670 31.190300 17.580400
H 7.154510 30.830900 17.230900
H 6.237370 30.409600 17.184500
H 6.160770 31.172600 17.880000
H 6.165290 31.220200 17.867900
H 8.068580 31.208000 17.280800
H 8.077190 31.213300 17.280800
H 7.344110 31.601600 17.839200
H 6.611030 31.990000 18.397600
H 6.595360 31.945100 18.415000
H 7.424700 32.520100 18.646000
H 7.449630 32.551600 18.628100
H 7.746640 31.864100 17.963400
H 8.426570 32.743500 18.511300
H 8.456380 32.754700 18.497600
H 8.266780 31.984000 17.889200
H 9.332520 32.555500 18.046800
H 9.361530 32.544700 18.041000
H 8.700550 31.881700 17.663800
H 8.999860 31.595600 17.330800
H 9.899790 32.006400 17.377100
H 9.922540 31.978000 17.380800
H 9.359070 28.121400 20.331600
H 9.372560 28.104500 20.308200
H 10.285800 28.501800 20.398800
H 10.268400 28.524200 20.435900
H 7.683020 28.125500 20.689100
H 7.663640 28.133200 20.685800
H 6.877540 28.547900 21.144200
H 6.906670 28.543900 21.160500
H 7.684330 29.141300 21.406400
H 7.720930 29.132200 21.411000
H 8.596210 28.522900 20.779700
H 8.572970 28.536100 20.790000
H 8.696200 29.353500 21.352700
H 8.733050 29.338600 21.341700
H 9.642040 29.127700 20.997400
H 9.671840 29.107900 20.971200
H 13.377100 0.765021 3.517010
H 13.354200 0.787126 3.463630
H 12.417500 3.725220 31.441200
H 12.427600 3.710580 31.452800
H 11.850700 5.545770 30.905700
H 11.831700 5.563030 30.912700
H 12.355000 4.649150 31.022000
H 12.339200 4.666880 31.018200
H 11.585600 4.101590 31.824500
H 12.045600 2.990360 32.068500
H 12.049000 2.981550 32.082900
H 16.766700 9.738330 26.939200
H 16.898800 8.808490 27.747800
H 16.737600 9.757980 26.974800
H 16.384400 10.471200 27.636900
H 16.416900 10.464600 27.588900
H 16.967800 7.880110 28.824300
H 16.709900 9.296720 27.861600
H 16.699300 8.844410 28.727100
H 16.840500 8.034330 29.296200
H 16.369000 9.329570 29.559500
H 16.682200 8.835470 28.748500
H 16.358600 9.690400 29.137200
H 16.558100 9.654490 28.158000
H 16.654600 8.374210 29.635300
H 16.995500 8.341370 27.937500
H 16.111100 10.746200 28.596800
H 16.142900 10.756700 28.543500
H 16.396700 9.790820 28.672600
H 16.017900 10.536400 29.547400
H 15.990700 10.509200 29.597400
H 16.981600 7.224260 29.865200
H 16.626900 7.912960 30.522200
H 16.631900 7.950490 30.514900
H 16.980000 7.199700 29.860100
H 16.499800 8.880330 29.706300
H 16.300200 8.916250 30.685600
H 16.288500 8.873390 30.709000
H 16.075500 9.862760 30.331400
H 16.055700 9.823670 30.370500
H 13.903500 14.882500 1.852280
H 13.921300 14.885100 1.852870
H 14.676000 14.392600 1.448490
H 14.691400 14.384900 1.457010
H 14.432100 14.230700 2.410420
H 14.422100 14.227200 2.401460
H 14.180600 15.039300 0.899456
H 14.157500 15.047900 0.899314
H 15.400400 13.552000 2.039570
H 15.394400 13.560000 2.020150
H 15.461600 13.884800 1.061150
H 15.448600 13.902600 1.044690
H 12.899600 16.193800 0.737765
H 12.442100 16.218200 1.666160
H 12.412600 16.205100 1.684420
H 13.151100 15.385200 2.248730
H 13.130900 15.372500 2.256080
H 12.866300 16.193300 0.753939
H 13.410400 15.539400 1.295320
H 13.384900 15.537900 1.303110
H 13.402600 14.576700 3.759690
H 13.395500 14.551800 3.758230
H 13.662000 14.730900 2.806280
H 13.649500 14.717200 2.805250
H 14.211700 13.951400 3.597580
H 14.209000 13.934800 3.586810
H 14.940600 13.571800 2.950630
H 14.943000 13.576400 2.967970
H 12.718100 15.257400 3.418950
H 12.732500 15.284600 3.410870
H 12.380900 15.885400 2.644590
H 12.358300 15.862500 2.659880
H 16.944500 16.394400 6.369740
H 13.929600 16.920200 9.446980
H 14.986100 17.000000 8.804120
H 13.136400 16.816100 10.047000
H 12.238500 16.639300 10.882800
H 13.252700 16.450500 10.970500
H 14.839000 16.658700 9.770390
H 14.204500 16.457600 10.563300
H 15.030100 13.220400 23.421500
H 15.067000 13.239700 23.436200
H 15.716300 12.457000 23.556000
H 15.753200 12.475400 23.566300
H 16.698200 12.132500 23.605800
H 16.734900 12.149900 23.611400
H 16.758900 13.113700 23.422700
H 16.795700 13.131500 23.430300
H 14.823300 14.218100 23.238300
H 14.860400 14.238000 23.256000
H 15.151400 15.182800 23.055400
H 15.924800 13.657600 23.330600
H 15.961800 13.676400 23.342700
H 16.022600 14.658000 23.161600
H 15.985500 14.638900 23.147500
H 16.856500 14.113100 23.249200
H 16.819500 14.094900 23.239600
H 16.880200 15.076200 23.056500
H 16.917300 15.094700 23.068200
H 15.188600 15.202900 23.074100
H 16.978100 16.076300 22.887100
H 15.926500 15.856100 22.921800
H 15.963800 15.875700 22.939000
H 16.940900 16.057400 22.873500
H 15.088900 14.507700 32.844300
H 15.110000 14.485600 32.853500
H 14.439900 15.193500 32.504700
H 14.411500 15.213300 32.505000
H 13.597900 15.830200 32.676400
H 13.630800 15.818700 32.666800
H 12.787700 17.913100 7.276610
H 11.835900 17.906000 7.683780
H 13.801800 17.724200 7.364340
H 14.606500 17.390000 7.923450
H 16.336900 18.017000 7.368840
H 16.479300 17.053000 7.019080
H 16.555500 19.028000 7.325290
H 13.020200 17.181800 9.123560
H 12.110800 17.443300 8.800150
H 12.227000 17.077700 9.723620
H 12.903900 17.547400 8.200090
H 13.813300 17.285900 8.523500
H 16.962900 25.706900 0.983649
H 16.971100 25.734900 1.006780
H 16.715500 26.643500 1.432260
H 16.106800 27.455300 1.442220
H 16.109300 27.482300 1.458370
H 16.710500 26.614800 1.412400
H 14.705600 25.284700 30.983800
H 14.691300 25.271000 30.963600
H 15.499800 24.740300 31.364100
H 15.484700 24.723100 31.340700
H 14.087500 26.111400 30.993400
H 14.099400 26.123600 31.009900
H 13.843700 27.032100 31.435400
H 13.835200 27.019300 31.422100
H 15.453600 25.561900 31.932300
H 15.441900 25.543100 31.911500
H 16.255100 24.614700 32.023700
H 16.269300 24.636100 32.048800
H 16.796200 24.974800 32.829500
H 16.807800 25.000200 32.854600
H 16.097600 25.669000 32.655900
H 16.107600 25.691900 32.677500
H 14.007000 27.766800 32.146300
H 14.001900 27.751400 32.134900
H 14.753400 26.253500 31.755200
H 14.743300 26.237300 31.737800
H 14.700400 27.057300 32.308600
H 14.707200 27.075200 32.323400
H 16.061400 26.513500 33.245700
H 16.054800 26.489000 33.226700
H 15.356200 27.183100 33.053000
H 15.399000 26.363100 32.482200
H 15.407400 26.383500 32.500400
H 15.361200 27.205100 33.068600
H 15.313400 28.003100 1.065110
H 15.315100 28.026700 1.078100
H 12.004600 31.067700 2.503710
H 11.971500 31.091200 2.461120
H 12.214400 32.080800 2.466580
H 12.183600 32.103700 2.421040
H 12.594100 29.542700 3.655580
H 12.562700 29.567000 3.613190
H 12.110300 30.162700 2.897470
H 12.143600 30.138700 2.938910
H 12.695600 30.783700 3.418770
H 12.950200 30.462100 3.822460
H 12.655400 31.224600 3.246530
H 13.244200 30.434200 4.178270
H 13.306300 31.381600 3.989350
H 13.280900 31.404700 3.940060
H 12.716800 32.906600 2.837470
H 12.689700 32.929000 2.787990
H 12.732200 31.754200 3.180550
H 13.011500 32.144100 3.413410
H 13.317500 32.375300 3.701840
H 13.662400 32.301000 4.156230
H 14.018500 33.220400 4.323110
H 13.999100 33.242500 4.266930
H 13.235500 29.439400 4.461680
H 13.207600 29.463700 4.416490
H 13.601000 30.619000 4.565280
H 13.895800 29.856500 5.141220
H 13.872100 29.880500 5.092130
H 13.829500 31.055300 4.699570
H 14.378200 30.705800 5.459070
H 14.398200 30.682300 5.512110
H 14.590300 31.718300 5.419000
H 13.957100 31.538500 4.732160
H 14.608000 31.695400 5.474980
H 14.469000 32.624400 5.039780
H 13.866200 32.025800 4.461350
H 14.451500 32.646800 4.982640
H 14.542900 28.111500 32.940800
H 14.545600 28.130900 32.952000
H 17.308800 7.847270 27.126400
H 17.323100 7.826060 27.122700
H 17.098300 8.772570 26.768600
H 17.075900 8.797540 26.788000
H 17.253400 6.924750 28.900100
H 17.255700 6.932140 28.910600
H 17.380700 7.152420 27.906800
H 17.373700 7.161780 27.899600
H 17.040000 7.998420 28.316900
H 17.607900 16.217600 5.594810
H 18.291600 16.570000 4.901920
H 19.184800 14.576400 9.170140
H 20.011200 15.157100 8.942730
H 20.740700 15.831400 9.234050
H 18.094100 14.251200 10.814700
H 18.483200 14.244800 9.855350
H 18.886000 15.050100 11.335000
H 19.066600 14.875500 10.367000
H 20.233500 16.137000 11.390300
H 20.414100 15.962400 10.422300
H 19.830600 15.331700 9.910690
H 19.650100 15.506200 10.878700
H 21.178100 16.418600 9.966040
H 21.206000 16.761300 10.942600
H 18.122000 14.593900 11.791300
H 18.559400 15.181000 12.523300
H 19.469500 15.680800 11.846600
H 19.288900 15.855300 12.814600
H 20.115300 16.436100 12.587200
H 20.817000 16.767700 11.902000
H 17.712600 12.333800 23.557400
H 17.749300 12.350500 23.559500
H 18.487600 13.007000 23.423900
H 18.524400 13.023400 23.424400
H 17.653600 13.551000 23.331700
H 17.690500 13.568200 23.336800
H 17.751300 14.549800 23.155700
H 17.714200 14.532200 23.148700
H 18.609000 14.969500 23.057700
H 18.646000 14.986500 23.062300
H 18.852600 13.988200 23.242400
H 18.815700 13.971700 23.241000
H 17.922700 15.732900 22.923200
H 17.959900 15.750800 22.932200
H 22.337400 16.678800 25.251900
H 20.417900 15.062600 27.640100
H 22.098000 15.187000 26.562300
H 21.350900 14.903600 27.220600
H 19.756200 16.913300 26.573600
H 19.549000 15.621300 27.708500
H 20.103100 16.087900 27.019100
H 18.977000 16.430100 27.407400
H 21.004000 15.729000 26.775100
H 21.558100 16.195600 26.085700
H 20.657200 16.554400 26.329700
H 20.540600 18.794600 1.670390
H 20.565900 18.798400 1.642110
H 21.227900 18.406900 2.335190
H 21.208200 18.410500 2.362230
H 20.385700 19.369400 0.797505
H 20.353100 19.358500 0.822636
H 22.278900 18.883800 1.883820
H 22.363700 19.468000 1.076610
H 21.770300 18.938200 1.725370
H 21.464800 19.133200 1.359360
H 21.342800 19.412100 0.955575
H 22.332500 19.465800 1.088510
H 22.177000 18.309200 2.712780
H 22.194100 18.299700 2.691030
H 17.987800 17.381300 5.401470
H 18.357600 18.280400 5.167110
H 17.684000 18.192600 5.901020
H 17.314300 17.293500 6.135380
H 18.812600 17.357200 4.476750
H 19.031200 18.368200 4.433200
H 18.053800 19.091700 5.666660
H 18.423600 19.990800 5.432290
H 18.888800 19.332200 4.782960
H 17.010500 18.104800 6.634930
H 17.380200 19.003900 6.400570
H 17.076500 19.815100 6.900110
H 17.760200 20.167600 6.207230
H 19.963500 18.205200 25.438700
H 20.310300 17.379800 25.884200
H 21.211300 17.021000 25.640200
H 20.896500 18.046200 25.019200
H 21.765400 17.487500 24.950800
H 19.216400 17.921900 26.097000
H 18.855300 17.272100 26.817600
H 21.477400 20.413800 32.107600
H 21.905000 19.939800 32.877400
H 20.735500 19.966700 32.586400
H 20.696000 19.951100 32.604800
H 21.549600 19.717400 33.110800
H 21.521600 20.430500 32.097600
H 27.841000 3.871850 6.569350
H 26.953100 4.282340 6.908320
H 27.391200 4.895090 7.892480
H 26.438000 4.865050 7.591610
H 27.824900 6.106650 9.721150
H 26.433600 5.463860 8.436140
H 26.941300 5.918320 9.215600
H 27.642800 5.421720 8.704470
H 26.170400 11.501700 6.007270
H 26.564600 11.183600 6.910200
H 27.353200 11.143200 7.579710
H 27.748600 13.048400 4.241730
H 26.854000 12.578400 4.466620
H 27.156600 12.116000 5.575960
H 26.276400 12.012200 5.112860
H 27.300700 11.701700 6.474630
H 22.459100 15.836700 25.841700
H 23.098800 15.961800 30.914100
H 23.101300 15.939500 30.940300
H 23.243800 16.598700 30.154800
H 23.246900 16.627500 30.135200
H 24.143300 16.532200 30.568200
H 24.142000 16.511500 30.585800
H 24.259200 15.917200 31.381500
H 24.255100 15.930100 31.358800
H 25.040100 16.424300 31.016800
H 25.039600 16.436800 31.001200
H 25.824100 16.943500 30.643700
H 25.821100 16.931400 30.652000
H 25.935900 16.341500 31.434200
H 25.938300 16.337100 31.447700
H 26.980400 16.911800 31.088400
H 26.979000 16.909100 31.093300
H 24.262900 15.156500 32.327000
H 24.273700 15.152600 32.356700
H 23.470600 15.423400 31.716300
H 23.478200 15.410200 31.746200
H 25.274500 15.235700 32.608100
H 25.151500 15.834800 31.791800
H 25.157300 15.830000 31.812400
H 25.263300 15.232700 32.582400
H 26.836400 16.249900 31.878700
H 26.832300 16.246100 31.867300
H 26.203800 15.631500 32.414100
H 26.212600 15.637400 32.433200
H 22.760000 18.991800 1.858310
H 23.177800 19.218600 1.601070
H 23.322200 19.519500 1.221450
H 23.968900 18.980500 2.130900
H 23.991900 18.969200 2.125530
H 23.262600 19.802700 0.793857
H 24.311800 19.573100 1.354390
H 24.341700 19.566600 1.355710
H 23.187500 18.517900 2.628110
H 23.205800 18.505500 2.614290
H 27.622500 17.232000 18.016600
H 27.724800 18.198300 17.659400
H 23.875400 17.242100 29.588300
H 23.867700 17.211200 29.600300
H 24.815900 17.641000 29.420100
H 24.805700 17.612900 29.425400
H 25.816300 17.717100 29.675500
H 25.806600 17.696000 29.676800
H 24.927700 17.038900 30.210600
H 24.922900 17.018600 30.221100
H 26.608500 17.450200 30.286100
H 26.602000 17.438400 30.287300
H 22.894600 19.993400 33.010300
H 23.456800 20.521100 32.373500
H 23.499500 20.529000 32.376700
H 24.161500 20.137500 33.069800
H 24.124400 20.137000 33.065300
H 22.448500 20.052100 32.828100
H 22.533300 20.636300 32.020900
H 22.488000 20.622400 32.022900
H 31.964200 1.388330 2.972560
H 32.555100 1.830550 3.698490
H 31.975600 1.184260 4.194910
H 32.835600 1.926430 4.690450
H 32.063200 1.094110 5.186990
H 32.730300 1.650260 5.682650
H 32.267500 1.076050 6.409220
H 28.863800 3.743590 6.665530
H 29.747400 3.931920 7.171080
H 28.092700 4.398490 7.381350
H 29.045900 4.428520 7.682210
H 30.255100 4.386370 7.950540
H 28.344400 4.925120 8.193340
H 29.297600 4.955150 8.494200
H 28.596000 5.451750 9.005330
H 30.250800 4.985180 8.795070
H 29.735600 5.567900 9.478360
H 28.847700 5.978380 9.817330
H 28.325000 11.391200 7.836410
H 28.036800 12.219800 6.039070
H 27.892700 12.634100 5.140400
H 28.772900 12.737900 5.603500
H 29.509100 13.256000 5.167940
H 28.720400 13.296400 4.498420
H 29.903200 12.937900 6.070870
H 28.917000 12.323600 6.502170
H 28.180900 11.805500 6.937740
H 29.219600 11.861300 7.611510
H 29.797200 12.427400 6.965280
H 33.148000 16.255100 8.551190
H 31.989500 16.186400 8.116550
H 32.669300 15.421800 8.274830
H 30.903000 15.749100 15.069100
H 30.912900 15.772700 15.053500
H 31.092900 16.666000 14.627500
H 31.120800 16.685500 14.611500
H 31.954600 16.404800 15.062500
H 31.974500 16.412200 15.054700
H 31.225700 14.937800 15.625400
H 31.218200 14.958000 15.614500
H 32.925700 14.411200 16.501000
H 31.955000 14.459600 16.144400
H 31.974700 14.449700 16.147500
H 32.949100 14.415300 16.495400
H 32.877000 15.275000 15.999500
H 32.882700 15.279400 15.996400
H 32.816300 16.143500 15.497500
H 32.828200 16.138800 15.498000
H 32.023200 15.548400 15.556200
H 32.021000 15.540700 15.561400
H 29.124800 16.884200 18.805300
H 28.012400 16.417000 18.522100
H 28.790100 15.971700 19.040500
H 29.747200 16.015400 19.432800
H 30.627200 16.536400 19.594000
H 30.630600 13.285400 27.490800
H 30.626000 13.275100 27.518800
H 32.146600 12.454300 27.597700
H 32.145400 12.450000 27.622500
H 31.636600 12.956100 26.876300
H 31.642600 12.964800 26.851100
H 29.114700 14.116400 27.383800
H 29.106600 14.100200 27.415000
H 30.808300 13.490100 26.559300
H 30.817400 13.502800 26.532700
H 29.882200 13.908900 26.756500
H 29.892200 13.924400 26.727700
H 29.592900 13.365200 28.906100
H 29.592500 13.374700 28.874400
H 30.443900 13.067900 28.448800
H 30.257100 12.850500 29.406800
H 30.261500 12.845200 29.437700
H 31.108400 12.543700 28.981300
H 31.112300 12.540100 29.009800
H 30.443700 13.060200 28.478200
H 31.295200 12.761100 28.023200
H 31.294600 12.755100 28.050400
H 31.780900 12.020100 29.541500
H 31.773000 12.019400 29.513700
H 32.194300 12.108300 28.572200
H 32.198200 12.107400 28.598000
H 28.742100 13.670300 29.333900
H 28.741200 13.681500 29.299900
H 28.689300 14.012900 28.358400
H 28.693400 14.027500 28.325300
H 29.779300 13.592200 27.916300
H 29.775200 13.580200 27.946600
H 29.250800 13.164200 30.080200
H 29.245200 13.171100 30.046400
H 31.005300 12.211500 30.200000
H 30.995600 12.211500 30.169900
H 30.079200 12.630200 30.397200
H 30.070300 12.633000 30.364900
H 33.066200 21.222200 1.661740
H 33.166300 17.973900 8.764540
H 32.010600 18.171000 8.362890
H 31.748400 17.192700 8.148780
H 32.687600 17.140500 8.488170
H 32.705900 18.859300 8.701510
H 31.759800 22.338000 10.722900
H 31.772500 22.293300 10.725200
H 31.838200 21.847900 11.657500
H 31.829200 21.888000 11.652700
H 31.513900 21.807300 12.635500
H 31.522000 21.775000 12.640600
H 32.779500 17.002600 14.996400
H 31.744600 17.442900 14.419000
H 31.786200 17.451900 14.407100
H 32.683500 17.871700 14.499500
H 32.730800 17.866400 14.494900
H 32.749900 17.007600 14.998500
H 30.898500 22.117600 13.408000
H 30.908700 22.094200 13.411100
H 28.875700 18.426900 18.058200
H 29.459500 17.796700 18.570100
H 28.541000 17.514400 18.293400
H 29.794300 18.709200 18.335000
H 28.291900 19.057100 17.546200
H 29.171900 19.578100 17.707400
H 30.906700 19.176400 18.618200
H 30.129000 19.621800 18.099800
H 30.378100 18.079100 18.846900
H 30.043400 17.166600 19.082100
H 31.194300 17.395100 19.480800
H 31.296600 18.361400 19.123700
H 30.639700 23.797300 9.938130
H 30.663400 23.756300 9.931850
H 31.092700 22.765700 11.286200
H 31.076800 22.802300 11.286800
H 29.858400 23.969600 11.450600
H 29.833800 23.996300 11.458300
H 30.516700 23.532000 10.894400
H 30.538200 23.497200 10.889600
H 31.324400 23.036900 10.095300
H 31.342500 22.991800 10.093600
H 29.273700 24.725900 11.065900
H 29.303900 24.701200 11.053900
H 29.917200 24.382000 10.283300
H 29.889100 24.415600 10.293400
H 29.053400 24.182900 12.969300
H 29.027800 24.195200 12.978500
H 29.710800 23.730900 12.414600
H 29.733200 23.710500 12.408300
H 30.287700 22.979000 12.804900
H 30.270900 23.001200 12.807000
H 30.412900 23.238100 11.847200
H 30.393800 23.266600 11.850700
H 30.967500 22.506600 12.243900
H 30.953900 22.537000 12.243100
H 28.987700 24.628300 12.037000
H 28.958500 24.645200 12.048700
H 29.483400 23.484400 13.600900
H 29.463200 23.496300 13.606000
H 30.147900 22.735900 13.763300
H 30.162500 22.719800 13.762600
H 33.036600 24.752100 15.878700
H 32.753800 25.738100 15.738500
H 32.776800 25.722000 15.725600
H 33.061700 24.735600 15.858700
H 33.023800 26.724900 15.655500
H 33.003000 26.739900 15.661000
H 30.524600 32.558500 2.973440
H 30.061800 31.984300 3.700010
H 31.308500 33.186800 3.699250
H 30.728900 32.540500 4.195670
H 31.220900 33.276900 2.707170
H 30.816500 32.450300 5.187750
H 31.396000 33.096600 4.691330
H 29.956500 31.708200 4.692210
H 30.236900 31.804000 5.684170
H 31.483600 33.006500 5.683410
H 30.827900 32.246300 6.410100
H 31.571200 32.916300 6.675490
H 28.534700 28.865500 11.204800
H 29.055600 29.178100 10.366500
H 29.696500 29.289700 11.125900
H 29.919900 29.550500 9.935160
H 30.616800 29.642000 10.955900
H 30.896200 29.882900 10.026400
H 32.177900 30.106000 11.545400
H 31.722600 30.086200 10.615800
H 28.496800 28.696500 12.225400
H 28.952100 28.716300 13.155000
H 29.417100 29.048800 12.055400
H 30.058000 29.160400 12.814900
H 30.978300 29.512800 12.644900
H 30.337400 29.401200 11.885400
H 31.257700 29.753600 11.715400
H 32.140100 29.937000 12.566100
H 29.778600 28.919600 13.744400
H 30.754800 29.252000 13.835700
H 31.619100 29.624400 13.404400
950
Atoms. Timestep: 50000
H 0.845218 0.854804 4.300290
H 2.425510 0.739984 4.999960
H 2.402990 0.754965 4.995330
H 1.615470 1.281280 4.774460
H 1.575690 2.249060 5.023130
H 1.550210 2.262550 4.994910
H 1.592610 1.291480 4.759860
H 2.498730 1.923450 5.360460
H 2.472840 1.943480 5.339540
H 0.824630 0.856940 4.289340
H 3.170970 1.189510 5.465860
H 3.195760 1.166460 5.474140
H 6.057870 5.806570 6.480370
H 6.066400 5.805500 6.465570