950
Atoms. Timestep: 0
H 5.570460 4.110360 16.784800
H 5.237050 4.452580 17.703300
H 5.378010 5.033250 18.548800
H 6.122240 4.897530 17.567100
H 5.955570 5.696770 19.094700
H 1.476720 2.094970 22.303500
H 1.841060 1.170080 22.194200
H 1.839520 1.157720 22.193300
H 1.477320 2.083540 22.301800
H 2.421950 1.961890 22.005300
H 2.422520 1.948030 22.004600
H 2.988890 0.873336 21.833000
H 2.986960 0.858029 21.833400
H 3.367190 1.828810 21.707100
H 3.367710 1.812520 21.707400
H 1.115130 3.009350 22.410300
H 2.057610 2.886770 22.114600
H 2.060320 2.873850 22.113100
H 1.726770 4.077230 22.211500
H 1.732280 4.065150 22.209200
H 1.112380 3.019850 22.412700
H 3.238940 2.855600 21.741000
H 3.241920 2.839640 21.740700
H 2.638510 3.678580 21.925600
H 2.643320 3.664150 21.924400
H 0.895824 1.303160 22.492400
H 0.894327 1.293230 22.490600
H 0.748037 3.944730 22.522000
H 0.752932 3.935170 22.518800
H 4.282970 21.954400 1.103260
H 4.412810 21.498700 2.023800
H 5.179040 22.264200 1.421350
H 5.531580 21.952600 2.303780
H 5.854570 21.496600 3.410040
H 4.988060 21.331100 2.868140
H 5.722560 22.885600 0.856996
H 6.075100 22.574000 1.739430
H 4.633340 22.576100 32.884900
H 5.370020 23.197300 32.506300
H 2.205400 32.777000 22.085000
H 2.201710 32.763700 22.084900
H 1.222370 32.633700 22.394500
H 1.226660 32.644500 22.395500
H 6.288910 4.098280 16.039400
H 7.533350 5.165330 16.598900
H 7.199880 4.419590 15.666900
H 6.648170 4.720380 16.735200
H 8.636840 5.651700 16.313000
H 8.059280 4.988180 15.767000
H 7.366680 5.964570 18.126600
H 7.007420 5.342470 17.430900
H 6.481500 5.519620 18.262800
H 7.892610 5.787420 17.294700
H 11.080700 7.970450 7.702580
H 11.251500 6.722230 9.256010
H 10.951600 7.210500 8.393740
H 8.444390 6.574590 18.076900
H 8.777800 6.232370 17.158400
H 7.725940 6.586670 18.822300
H 6.814970 6.265360 19.194800
H 6.427640 22.262400 2.621870
H 6.780180 21.950800 3.504310
H 6.618620 23.195400 1.175080
H 6.971160 22.883800 2.057520
H 7.737390 23.649300 1.455070
H 7.867220 23.193600 2.375600
H 7.516860 22.571900 3.125680
H 8.818750 24.826400 18.487200
H 9.793340 24.692000 18.164700
H 10.734800 24.283400 18.301500
H 7.753500 24.211600 20.064500
H 8.711500 23.940100 19.971600
H 9.669500 23.668600 19.878700
H 11.390700 23.710100 18.860900
H 10.202100 23.976000 19.090100
H 10.627500 23.397200 19.785800
H 11.266900 22.686700 20.574800
H 10.094900 23.089800 20.574400
H 8.072120 24.650500 19.182600
H 9.244130 24.247500 19.183000
H 7.948280 23.627200 20.896600
H 9.136880 23.361200 20.667300
H 8.604250 23.053800 21.455900
H 9.545660 22.645300 21.592700
H 10.520200 22.510900 21.270200
H 7.162140 23.816900 33.142500
H 6.295620 23.651400 32.600600
H 12.382200 9.472600 7.478920
H 11.604400 8.798430 7.367740
H 11.752300 7.717440 8.713040
H 12.226600 7.430420 9.545350
H 11.872500 7.318660 9.234230
H 12.661300 7.834390 9.568610
H 11.999300 8.086780 8.551740
H 12.553000 8.224380 9.032350
H 12.514900 8.925470 8.231310
H 12.078700 8.511400 8.200040
H 12.879400 9.018340 8.519350
H 12.982500 8.637800 9.067150
H 13.353700 8.731320 9.351660
H 13.281100 9.609990 8.358810
H 13.854500 9.726530 8.808690
H 13.771400 9.153530 9.401530
H 14.154400 9.238250 9.670960
H 13.205800 9.812310 8.006350
H 14.092600 9.956930 8.900070
H 14.732000 9.873330 9.710060
H 13.027300 7.937350 9.864660
H 12.168400 6.826920 10.095900
H 12.723800 6.976160 10.585800
H 12.807800 6.743310 10.905900
H 11.900200 6.636450 10.058400
H 13.129000 7.546720 10.404400
H 13.501600 7.650330 10.697000
H 13.619300 7.090260 11.447200
H 14.385500 7.774780 11.574700
H 13.450200 8.350120 9.902990
H 13.917800 8.062450 10.738800
H 14.239000 8.865850 10.237400
H 14.025300 8.478310 10.362100
H 14.901100 8.613460 11.254200
H 15.027900 9.381590 10.571700
H 15.481900 20.554000 22.031900
H 15.515100 20.555000 22.050700
H 16.640600 20.234500 22.334100
H 16.673500 20.227100 22.345100
H 15.690100 21.412800 21.492500
H 15.725600 21.415100 21.514200
H 16.581900 21.070100 21.787800
H 16.616900 21.065600 21.803000
H 16.376200 22.088000 21.111300
H 16.413700 22.087900 21.132500
H 16.609700 19.183200 23.010100
H 16.579500 19.193400 23.003800
H 15.807500 19.741700 22.585100
H 15.838700 19.738000 22.598200
H 15.632900 22.286400 29.199700
H 16.562500 22.205900 28.829500
H 16.561100 22.203400 28.837000
H 15.632700 22.287000 29.188700
H 16.737700 22.382800 27.869200
H 16.742400 22.385400 27.862300
H 16.211000 22.011200 30.001900
H 16.213600 22.009200 30.010700
H 11.585500 23.125700 19.693000
H 16.825300 22.630500 26.657900
H 16.834000 22.632900 26.651300
H 15.992400 22.645900 27.254200
H 15.986000 22.645100 27.264000
H 15.549600 22.519200 28.194300
H 15.552700 22.519300 28.182900
H 15.530000 27.569000 27.938500
H 15.764100 27.323700 28.896400
H 15.765000 27.327300 28.917500
H 15.528700 27.567100 27.918000
H 16.409900 27.385400 29.725300
H 16.409500 27.380300 29.703900
H 13.416200 30.245900 1.418700
H 13.434400 30.259300 1.446210
H 13.430000 30.263700 1.422710
H 13.788400 29.917300 2.330160
H 13.800000 29.908300 2.349030
H 13.775900 29.903800 2.327300
H 14.534000 30.475700 1.975610
H 14.525400 30.482600 1.959610
H 14.510100 30.471900 1.955580
H 14.395400 30.920400 1.069110
H 14.414100 30.931700 1.093690
H 14.412500 30.934100 1.074450
H 15.244400 31.040000 1.583850
H 15.267900 31.043100 1.602190
H 15.262400 31.048000 1.589060
H 15.387800 30.587100 2.484110
H 15.359100 30.591600 2.470320
H 15.375300 30.596500 2.474210
H 16.093400 31.159700 2.098600
H 16.121800 31.154500 2.110700
H 16.112300 31.161900 2.103660
H 15.999400 31.613300 1.218500
H 16.001900 31.610500 1.228780
H 15.978700 31.608100 1.212130
H 16.735900 32.177800 0.855363
H 16.713000 32.176200 0.840404
H 16.736400 32.178700 0.847954
H 14.541700 29.873800 3.039020
H 14.529000 29.866200 3.036690
H 14.558900 29.861400 3.051730
H 16.962100 31.275700 2.618270
H 16.975700 31.265900 2.619200
H 16.942400 31.279300 2.613350
H 15.488200 30.145000 3.359370
H 15.507700 30.131100 3.366030
H 15.473900 30.143100 3.356800
H 16.374100 30.658100 3.205370
H 16.392400 30.645200 3.207720
H 16.357200 30.660400 3.201840
H 16.853700 28.536700 27.366000
H 16.413300 28.630200 26.473000
H 16.415200 28.629700 26.492200
H 15.766300 28.045300 27.031000
H 16.531500 28.245900 27.664900
H 15.768000 28.045700 27.050800
H 16.411400 28.005200 28.088500
H 16.851800 27.911800 28.981500
H 16.530000 27.886700 28.598200
H 13.546400 30.800700 33.086100
H 13.562600 30.820200 33.091600
H 13.560200 30.820300 33.116900
H 14.143500 31.441000 32.528400
H 14.131600 31.419700 32.497600
H 14.150700 31.437800 32.504500
H 15.148100 31.499100 33.252000
H 15.149500 31.499500 33.235700
H 15.036600 31.950900 32.350500
H 15.015000 31.936900 32.342700
H 15.028200 31.955100 32.370100
H 15.129700 31.488500 33.229100
H 15.983000 32.222100 32.670800
H 15.959800 32.213800 32.662800
H 15.977000 32.224800 32.684400
H 21.192400 1.324400 5.587470
H 21.972900 2.010020 5.349960
H 21.944600 2.000190 5.365060
H 21.212600 1.345450 5.578510
H 22.015200 0.996976 6.062690
H 22.374900 1.320050 5.958610
H 21.574400 11.552900 3.023840
H 21.573700 11.532000 3.038130
H 21.585400 11.525100 3.027080
H 22.128000 10.687200 3.263750
H 22.115100 10.700800 3.255400
H 22.136000 10.678500 3.254740
H 18.453400 11.011800 7.791260
H 18.426200 10.980100 7.799360
H 19.648600 11.273000 7.989630
H 19.237100 10.361600 7.978300
H 19.200300 10.322900 8.001290
H 19.623400 11.229000 8.001450
H 20.201100 10.151300 8.203310
H 20.241300 10.199800 8.171410
H 20.603500 11.323200 8.176450
H 21.848000 11.372400 8.381110
H 20.628500 11.377100 8.159900
H 21.197000 10.569800 8.318850
H 21.160500 10.511200 8.351280
H 21.821400 11.306300 8.405560
H 19.502700 9.195800 27.375200
H 20.191100 8.930550 26.659100
H 20.206700 8.912450 26.671000
H 19.491600 9.214750 27.367400
H 21.089000 9.735300 26.945900
H 21.097000 9.726660 26.954800
H 21.122300 9.046530 26.221600
H 21.138200 9.033110 26.235500
H 22.035600 9.531620 26.172300
H 22.047600 9.525430 26.185400
H 20.273600 9.819410 27.518800
H 20.279200 9.808000 27.524600
H 21.055700 10.420200 27.674000
H 21.832300 11.032400 27.823400
H 21.871000 10.340000 27.097300
H 21.055600 10.424100 27.670200
H 21.873500 10.338900 27.104200
H 21.837700 11.028700 27.821500
H 19.424900 10.592300 28.816000
H 19.420300 10.582900 28.813800
H 19.211200 9.822990 28.156900
H 19.214900 9.807230 28.159600
H 20.238000 10.501600 28.243900
H 20.240300 10.508200 28.243100
H 20.063900 11.315000 29.162700
H 20.075700 11.316500 29.168000
H 21.014500 11.113800 28.393300
H 21.022300 11.112800 28.394400
H 21.850800 13.105300 1.829970
H 21.826000 13.109300 1.834430
H 21.859500 13.125500 1.821390
H 22.362000 12.062800 2.214040
H 21.463200 12.418600 2.514970
H 21.481000 12.413400 2.505570
H 21.480900 12.440400 2.498960
H 22.401800 11.609900 2.482890
H 22.418100 11.602800 2.478760
H 18.272200 12.996300 7.620820
H 18.086300 11.946900 7.651610
H 18.100300 11.976100 7.660420
H 18.271700 12.964000 7.597650
H 19.080200 12.080200 7.830690
H 19.066400 12.041000 7.826610
H 19.489600 12.947100 7.826770
H 19.491700 12.991600 7.842020
H 18.932600 13.759100 7.651930
H 18.923300 13.798900 7.683080
H 19.878900 14.168900 7.830520
H 19.892000 14.119000 7.799900
H 21.972900 15.218600 7.891260
H 20.046500 12.135200 8.001610
H 20.060100 12.184300 8.000960
H 20.471600 13.095700 8.012290
H 20.469700 13.041300 8.001770
H 21.026600 12.229300 8.176600
H 21.040000 12.288400 8.171240
H 22.020000 12.392500 8.341510
H 22.006700 12.323500 8.351600
H 21.666800 13.356900 8.210660
H 21.666800 13.290200 8.203860
H 20.883100 14.007100 8.023620
H 20.892800 13.947400 8.001920
H 22.363700 16.311000 8.327250
H 21.429100 16.084800 8.052340
H 21.907000 16.820700 24.558400
H 20.989000 11.801600 29.118700
H 20.973300 11.807300 29.112600
H 21.904800 11.928000 28.677100
H 21.920200 11.917600 28.681300
H 21.855600 17.916200 8.733840
H 21.386200 17.072200 8.360750
H 18.365700 20.384800 22.378500
H 18.399600 20.366600 22.380800
H 17.415100 21.563000 21.536900
H 17.451700 21.554600 21.549900
H 17.473800 20.727400 22.083200
H 17.508300 20.716100 22.091900
H 18.307000 21.220300 21.832200
H 18.343000 21.205100 21.838700
H 18.368100 22.261400 21.162600
H 18.406900 22.249000 21.173700
H 17.395100 22.393100 21.007800
H 17.356400 22.398600 20.990600
H 19.465700 20.900900 22.134400
H 19.501400 20.877200 22.133100
H 19.177800 21.694100 21.585600
H 19.140100 21.713200 21.581200
H 18.571400 19.366900 23.055000
H 18.602800 19.344300 23.051300
H 17.621400 19.039100 23.176000
H 17.591200 19.056300 23.175700
H 17.564800 19.877600 22.633900
H 17.532500 19.891900 22.629500
H 19.291000 20.017100 22.669600
H 19.257500 20.042100 22.673800
H 21.437100 17.284000 25.356200
H 21.490700 17.829100 26.234800
H 22.053400 18.309700 26.958800
H 17.666000 22.299800 27.506500
H 18.773600 22.238400 26.938800
H 18.765100 22.231700 26.938000
H 17.672200 22.304300 27.503100
H 19.351900 21.962600 27.752100
H 19.345900 21.954500 27.749000
H 17.492300 22.124800 28.470400
H 17.312800 21.941100 29.442200
H 17.312500 21.945400 29.437600
H 18.241100 21.858100 29.079500
H 18.242300 21.864300 29.078500
H 18.417600 22.037500 28.111700
H 18.422100 22.043700 28.111200
H 17.489400 22.120500 28.474300
H 19.429200 21.721700 28.754400
H 19.432000 21.730300 28.757800
H 17.136200 21.761700 30.410000
H 17.132700 21.765900 30.404800
H 18.153400 21.610400 30.290700
H 18.150700 21.616700 30.289400
H 18.992700 21.595800 29.684700
H 18.992300 21.603700 29.686500
H 17.852000 22.483700 26.535900
H 17.842600 22.479200 26.538600
H 20.019700 27.531700 29.457200
H 20.048600 27.541600 29.439000
H 17.291900 27.721600 30.124400
H 17.292000 27.727600 30.145500
H 19.471700 26.925600 30.038700
H 19.447400 26.914800 30.060400
H 20.486200 27.529400 30.341800
H 20.219700 27.232900 30.627100
H 19.278500 26.462000 30.976100
H 19.295600 26.474300 30.953700
H 20.115600 26.994600 31.101200
H 20.952800 27.527200 31.226300
H 20.967600 27.540200 31.215400
H 20.267600 26.924400 31.577100
H 20.582200 26.992400 31.985700
H 20.211600 26.457500 32.745100
H 19.558200 26.294600 31.958700
H 19.567500 26.308600 31.938800
H 20.214600 26.473000 32.730100
H 21.015600 27.231700 32.165500
H 21.885800 27.522700 32.995400
H 21.419300 27.524900 32.110900
H 21.886700 27.538900 32.991900
H 21.063500 26.923300 33.115600
H 21.063600 26.907000 33.124600
H 17.094700 31.832300 1.755400
H 17.101400 31.826900 1.758180
H 17.072600 31.834200 1.749000
H 20.882500 33.025900 6.066540
H 20.872400 32.997000 6.068380
H 21.727500 31.664400 7.263440
H 21.733100 31.636700 7.255490
H 21.070300 32.184600 6.678920
H 21.944400 32.698100 6.615070
H 21.070900 32.215900 6.683260
H 21.838800 33.084300 6.310270
H 22.269200 32.404200 6.903830
H 17.298100 29.164400 26.412300
H 17.296200 29.164900 26.393600
H 17.296600 28.805200 27.345600
H 17.736300 28.974800 27.536500
H 18.180200 29.506600 26.832600
H 18.178600 29.506300 26.814000
H 18.824000 29.562900 27.621600
H 18.825200 29.564700 27.640400
H 18.058600 28.646200 28.893000
H 17.734500 28.349800 29.152000
H 17.293600 28.086800 29.212200
H 18.176700 28.881400 28.429500
H 17.295100 28.446000 28.278900
H 17.294100 28.443300 28.259000
H 18.060100 29.005300 27.959700
H 18.821800 28.841200 29.487000
H 19.059400 29.319400 28.600000
H 18.822100 28.846300 29.507000
H 19.060100 29.323000 28.619300
H 20.842000 28.147400 29.328000
H 20.871800 28.157200 29.315300
H 18.174900 28.256400 30.044900
H 18.175000 28.262400 30.065700
H 21.720600 28.607500 29.700700
H 21.693900 28.596900 29.707500
H 22.367700 28.771800 30.492000
H 21.323300 28.062000 30.466900
H 21.667700 28.156000 30.853700
H 21.789900 28.059800 31.351500
H 22.347300 28.759800 30.493900
H 20.919700 27.848700 30.265400
H 21.715600 27.847500 31.803800
H 27.279400 1.139530 0.999823
H 27.539900 2.228420 1.531330
H 27.675300 1.057580 1.914510
H 22.927300 2.311500 5.460730
H 22.959600 2.309770 5.442120
H 23.908300 2.164380 5.830300
H 23.877400 2.174900 5.848840
H 22.888700 1.479140 5.994500
H 23.691400 1.130660 6.478670
H 23.341300 1.407410 6.200510
H 24.564800 1.612820 6.410480
H 24.540100 1.627010 6.425420
H 24.753300 0.802868 7.027200
H 24.738000 0.814623 7.035950
H 25.551300 2.066260 10.974800
H 25.565100 2.056770 10.982500
H 26.624200 2.569930 11.371100
H 26.613500 2.570840 11.366300
H 26.214300 2.667570 10.454500
H 26.223400 2.660860 10.459400
H 27.096500 3.216220 10.424900
H 27.091200 3.217050 10.422800
H 25.472700 1.323310 12.830100
H 25.493700 1.319560 12.840400
H 25.298000 1.565820 11.854000
H 25.279900 1.574220 11.844300
H 26.545400 1.927420 12.973100
H 26.562400 1.931490 12.980100
H 27.025100 2.479010 12.282800
H 27.012600 2.474100 12.278100
H 27.425900 2.388090 13.194500
H 27.411800 2.377360 13.189900
H 26.161500 2.022410 12.068400
H 26.146300 2.024160 12.061200
H 27.487800 3.026530 11.585500
H 27.479900 3.020780 11.583200
H 27.826700 2.297160 14.106100
H 27.810900 2.280630 14.101800
H 26.099700 1.383970 13.677400
H 26.078200 1.380750 13.668000
H 26.934000 1.731150 14.133400
H 26.953600 1.741800 14.140700
H 27.129200 2.043390 33.130900
H 26.799100 1.373980 32.413400
H 23.950800 10.967900 1.980690
H 23.931800 10.976900 1.974270
H 23.560200 10.815400 2.307360
H 24.124200 11.307600 1.644220
H 23.118100 10.890300 2.529000
H 23.103700 10.899100 2.529510
H 24.633700 10.266100 2.020880
H 24.650800 10.255500 2.030930
H 24.626700 10.244900 2.036880
H 24.996600 10.956900 1.340340
H 25.005300 10.930000 1.359310
H 25.020600 10.947300 1.355320
H 22.679100 11.193000 2.592270
H 23.877300 9.945680 2.685580
H 22.977500 10.110500 3.131360
H 23.894700 9.956340 2.676440
H 23.905800 9.945420 2.679610
H 22.985300 10.100200 3.127560
H 22.958000 10.112600 3.131590
H 25.351500 8.092300 9.727640
H 25.389300 8.070910 9.685340
H 26.282400 8.043430 9.162450
H 26.233000 8.068460 9.185160
H 27.311400 8.155350 9.138900
H 27.261700 8.176900 9.140720
H 25.886900 10.083500 9.756850
H 25.907600 10.053200 9.759740
H 26.443700 9.914390 8.884940
H 26.422100 9.960450 8.879190
H 27.322700 9.974720 8.368740
H 27.345000 9.917650 8.375600
H 27.576100 10.181100 9.312250
H 27.104000 10.216700 9.564400
H 24.871300 8.230430 10.567400
H 24.853400 8.242020 10.622800
H 25.817800 8.402060 10.833400
H 25.830300 8.397060 10.796700
H 24.867200 8.479240 11.572400
H 27.748400 8.730320 11.255200
H 26.507600 8.315280 10.114500
H 26.535900 8.303560 10.094200
H 26.782300 8.562100 11.043900
H 26.789400 8.563690 11.026000
H 27.494900 8.470190 10.323500
H 27.472100 8.475320 10.325100
H 27.746700 8.722140 11.254500
H 25.880500 10.296900 10.765600
H 25.860500 10.310900 10.766500
H 26.823100 10.392000 10.508100
H 27.505000 10.648200 11.193300
H 27.785800 10.473000 10.249600
H 26.857400 10.248900 10.004300
H 27.807100 10.444600 10.248900
H 27.088400 10.512300 10.941000
H 25.402700 8.735650 12.481600
H 25.378200 8.750680 12.431000
H 24.872100 8.477500 11.630800
H 26.092500 8.648870 11.762700
H 26.302900 8.947300 12.947100
H 26.267300 8.972020 12.913100
H 27.331500 9.055730 12.902700
H 27.296300 9.083950 12.889500
H 27.056900 8.808910 11.973300
H 27.042800 8.823820 11.957700
H 26.083800 8.657190 11.728500
H 27.243900 10.827000 12.129600
H 27.224200 10.823500 12.136900
H 26.350000 10.581800 11.637700
H 26.369700 10.580100 11.633000
H 22.691200 10.257500 26.534300
H 22.900100 11.025100 27.183400
H 22.896600 11.033200 27.188500
H 22.686300 10.255800 26.524400
H 23.383500 12.470400 1.331900
H 23.356100 12.476400 1.325800
H 23.807100 12.177400 1.266000
H 22.926000 12.555000 1.550910
H 23.250800 11.680400 1.930450
H 24.058000 11.765600 1.372410
H 23.229900 11.687700 1.927650
H 23.243100 11.685200 1.929130
H 24.083500 11.758000 1.382140
H 22.550800 12.392800 1.880210
H 22.528000 12.398500 1.881040
H 24.886100 11.843400 0.817174
H 24.916200 11.835600 0.833821
H 24.911800 11.817500 0.834423
H 23.671900 14.684400 2.026550
H 23.653000 14.700800 2.013390
H 23.677800 14.699900 2.012020
H 22.608900 13.424700 1.172690
H 22.595800 13.415300 1.181290
H 22.565100 13.419100 1.178870
H 24.604300 14.238700 2.090010
H 24.583000 14.250800 2.080230
H 24.605600 14.245500 2.079210
H 24.716600 14.981100 1.429470
H 25.596800 14.191000 1.799490
H 25.576100 14.197700 1.792400
H 25.598800 14.188200 1.792550
H 25.606300 15.138700 1.000880
H 25.197200 14.964600 1.274480
H 25.224200 14.958000 1.275590
H 26.383700 14.553800 1.232840
H 26.366100 14.555500 1.227010
H 26.391200 14.543400 1.228860
H 22.904100 16.216900 0.995992
H 23.889100 15.983600 0.868361
H 23.856700 15.983200 0.867050
H 23.049600 15.408400 1.626110
H 23.035200 15.426900 1.609780
H 23.063900 15.429800 1.608980
H 22.928500 16.239400 0.978092
H 22.895200 16.234700 0.977544
H 23.939300 15.566000 1.197520
H 24.829000 15.723500 0.768934
H 24.235600 15.216200 1.384970
H 24.263700 15.213800 1.385320
H 24.818300 15.731600 0.756555
H 24.849600 15.727700 0.758629
H 22.871800 14.705700 7.920670
H 23.884900 14.683600 8.132680
H 24.740800 15.158100 8.470490
H 23.298200 16.537200 8.602160
H 23.085000 15.621500 8.261410
H 24.019500 15.847600 8.536320
H 25.167300 16.989500 9.151980
H 24.232700 16.763300 8.877070
H 25.210200 16.002100 8.843580
H 27.112700 15.078800 16.561100
H 27.111800 15.100700 16.552100
H 27.527900 15.546200 15.735900
H 27.524300 15.563000 15.722600
H 27.619100 13.519900 17.707300
H 27.147700 14.363600 17.278200
H 27.146000 14.337200 17.282700
H 27.622300 13.549200 17.706500
H 22.774500 16.563200 24.055300
H 23.807000 16.580500 23.981600
H 24.728000 16.868000 24.357100
H 22.608800 11.644600 27.972800
H 22.619700 11.633400 27.972900
H 23.528200 13.257800 33.258400
H 23.482200 13.265000 33.255700
H 23.516200 13.260500 33.265100
H 24.371100 12.669600 33.134600
H 24.365600 12.682300 33.137900
H 24.331800 12.688200 33.123300
H 24.051700 16.308400 33.068700
H 23.307900 16.912000 32.820200
H 23.274300 16.893200 32.836800
H 23.270500 16.907800 32.817900
H 25.779900 15.480100 33.177800
H 26.021400 16.755500 32.037000
H 25.810100 15.471800 33.180700
H 25.986100 16.762700 32.043100
H 25.983600 16.762500 32.031500
H 25.718700 15.881100 32.872100
H 24.941400 16.465900 32.640200
H 25.401000 16.247100 32.659900
H 24.474900 16.497400 32.773400
H 24.439400 16.498600 32.770400
H 25.435500 16.241600 32.663700
H 26.635200 16.025600 32.440000
H 26.608400 16.038600 32.443500
H 26.601400 16.036400 32.435100
H 26.753900 15.230100 33.073600
H 26.741400 15.228500 33.067300
H 26.770600 15.216000 33.070900
H 23.511400 17.452900 8.942910
H 23.724700 18.368600 9.283660
H 22.576900 17.226700 8.668000
H 22.711500 18.390700 9.071650
H 24.623500 17.855700 9.313060
H 25.393400 22.317800 18.554100
H 25.425100 21.316200 18.486700
H 25.445200 21.288200 18.459100
H 25.386000 22.346500 18.580900
H 25.921100 19.777400 19.680400
H 25.892200 19.801300 19.706100
H 25.638400 20.358300 18.871400
H 25.610300 20.384600 18.898600
H 25.931500 20.742800 20.040700
H 25.970800 21.684400 20.375300
H 25.805600 21.009500 19.611800
H 25.697900 21.500300 19.431000
H 25.683100 21.989200 19.453100
H 25.972800 21.660600 20.352100
H 26.095200 20.680900 20.510800
H 26.195100 19.722500 20.693000
H 26.217700 19.701100 20.669400
H 26.448700 20.149900 21.573400
H 26.437900 20.169500 21.594800
H 26.243600 21.868500 21.319600
H 26.140000 22.311800 21.092500
H 26.552100 21.003400 22.150100
H 26.262400 21.332000 21.251100
H 26.555500 21.022400 22.169800
H 26.204300 20.927000 20.985100
H 26.500300 22.033100 22.245100
H 26.516500 22.052600 22.264000
H 23.390700 17.588900 25.658000
H 22.648900 17.204800 25.108200
H 23.598800 17.084700 24.819800
H 22.440700 17.709000 25.946400
H 24.340700 17.468800 25.369500
H 25.290700 17.348700 25.081100
H 25.344200 17.893800 25.959700
H 23.182500 18.093100 26.496100
H 24.132500 17.973000 26.207700
H 22.974400 18.597300 27.334300
H 24.006900 18.614600 27.260600
H 24.874400 18.357100 26.757500
H 24.100300 17.267200 32.256500
H 24.060500 17.265600 32.252500
H 24.061200 17.256100 32.270100
H 25.053800 17.208300 31.979600
H 25.053600 17.212500 31.964600
H 25.093500 17.209900 31.969800
H 25.850300 22.640400 20.193500
H 25.496800 23.171400 19.130900
H 25.503700 23.199400 19.155900
H 25.727800 23.620200 20.034800
H 25.746500 23.646300 20.057600
H 25.737200 22.441900 19.765600
H 26.010100 22.626000 20.709900
H 26.024400 23.543900 21.023800
H 26.049400 23.567600 21.044500
H 26.331200 22.984300 21.852100
H 26.307200 22.963000 21.832800
H 27.319300 30.774700 1.269720
H 27.730000 30.959700 2.201940
H 27.825500 32.685500 2.315220
H 27.429600 32.767400 1.400530
H 27.579800 31.863600 1.801230
H 27.183900 31.945500 0.886543
H 22.683100 31.500100 7.643610
H 22.676200 31.519000 7.651620
H 23.620500 32.831800 7.031050
H 23.665900 31.811400 7.739280
H 23.662900 31.818700 7.743780
H 23.235600 32.491500 7.145720
H 22.747000 32.349600 7.099240
H 22.805200 33.171700 6.552170
H 22.817900 33.180300 6.546870
H 23.771600 33.259000 6.794060
H 24.423200 32.483300 7.515230
H 24.418100 32.487200 7.516860
H 27.728500 30.075700 17.908600
H 27.726100 30.085100 17.928300
H 27.317200 30.851100 18.457700
H 27.312800 30.865800 18.468200
H 27.423900 31.754900 18.987000
H 27.430100 31.735600 18.983900
H 22.463600 28.154800 32.392200
H 22.627000 28.592400 31.476600
H 22.639700 28.606100 31.477200
H 22.458100 28.139600 32.392200
H 26.938200 31.123600 32.904300
H 26.688800 31.913000 32.282600
H 27.033700 32.849400 33.017600
H 26.637800 32.931300 32.102900
H 27.921000 1.879490 2.428500
H 28.170400 1.090100 3.050220
H 27.950400 3.574050 10.888200
H 27.947100 3.567450 10.888300
H 28.745400 3.373980 12.711900
H 28.752100 3.392200 12.711600
H 27.888600 2.935610 12.497200
H 28.552500 3.624890 11.726100
H 28.556400 3.638460 11.725200
H 27.879000 2.924040 12.495000
H 28.473900 2.881940 13.581400
H 28.485000 2.901250 13.583100
H 32.244500 1.327440 22.863000
H 32.118700 2.354550 22.896300
H 32.246300 1.334330 22.865900
H 32.118000 2.361120 22.899800
H 33.063900 2.219050 22.599000
H 33.063200 2.228040 22.601700
H 32.499400 3.309050 22.770300
H 32.496300 3.316600 22.773900
H 28.161900 8.388540 9.606250
H 28.200500 8.376690 9.620980
H 28.370200 10.062100 8.368220
H 28.525800 10.376800 9.556830
H 29.244500 10.309000 8.864760
H 29.221700 10.364200 8.861490
H 28.347400 10.122500 8.362260
H 28.066600 10.297700 9.305930
H 29.711100 10.635000 9.732660
H 29.733600 10.592300 9.732180
H 28.711200 8.882180 11.465000
H 28.707400 8.896950 11.484500
H 28.692400 8.646690 10.457000
H 28.711500 8.648130 10.479500
H 28.756800 10.640300 10.493500
H 28.038100 10.708000 11.185500
H 28.467600 10.729300 10.934800
H 28.748500 10.554000 9.991130
H 29.684700 10.862500 10.742400
H 29.706500 10.835900 10.738100
H 28.213000 9.031890 12.360200
H 28.189400 9.056470 12.366600
H 29.170500 10.974700 11.612900
H 28.269100 10.971500 12.122200
H 28.248900 10.971300 12.130500
H 29.149500 10.985500 11.620000
H 29.948000 14.601100 14.626500
H 29.954600 14.590500 14.641300
H 30.422600 13.786700 15.054700
H 30.427700 13.773300 15.065900
H 28.280400 15.614100 15.028100
H 29.161800 15.274600 14.610800
H 29.168700 15.264300 14.627400
H 28.274700 15.626700 15.012100
H 29.416400 13.309700 16.393500
H 29.415500 13.331200 16.388400
H 30.045900 12.587300 16.610300
H 30.045800 12.564200 16.612700
H 30.461100 13.031600 15.787400
H 30.458400 13.049600 15.780900
H 27.966400 14.219400 16.722300
H 27.966500 14.196200 16.728500
H 28.154700 14.819100 15.944500
H 28.973500 14.674900 15.388700
H 28.977800 14.659800 15.400900
H 29.607300 13.914300 15.620100
H 28.785100 14.075200 16.166500
H 28.786900 14.055200 16.174300
H 29.603900 13.930900 15.610600
H 28.157400 14.800700 15.955100
H 28.595900 13.450700 16.947700
H 28.596800 13.475500 16.944300
H 29.295600 12.523700 17.320900
H 29.293300 12.496300 17.320500
H 28.405000 12.846200 17.721100
H 28.408500 12.875800 17.722100
H 29.367400 20.341400 29.050000
H 30.798400 21.346700 28.079500
H 30.103800 20.643700 28.388100
H 30.025700 21.391500 29.047500
H 30.606300 22.200700 28.957000
H 31.265000 22.262100 28.207000
H 28.786400 20.520800 29.888000
H 29.367000 21.330000 29.797500
H 29.288900 22.077800 30.456900
H 28.516600 21.133900 30.677400
H 28.630200 22.016300 31.206800
H 29.947600 22.139200 29.706900
H 29.079200 26.609500 22.395800
H 29.105800 26.606800 22.387400
H 30.783200 27.038300 22.411300
H 29.960700 26.247700 21.927000
H 30.982600 26.298500 21.768600
H 29.925500 26.239000 21.928500
H 30.946300 26.277300 21.760200
H 30.761700 27.021300 22.402500
H 32.444200 27.433000 22.409300
H 31.897600 26.745800 21.954700
H 31.868200 26.714400 21.936200
H 28.634300 27.289800 23.037100
H 28.646900 27.279800 23.026400
H 29.828200 27.187400 22.720300
H 29.844800 27.192400 22.720700
H 30.583700 27.778000 23.054100
H 30.577100 27.765200 23.044900
H 31.510600 27.599100 22.727100
H 31.522100 27.623900 22.744700
H 32.460500 27.469700 22.435300
H 31.378600 23.144500 28.736400
H 30.528200 22.948400 29.616400
H 31.108800 23.757600 29.525900
H 29.096800 22.931700 31.334300
H 29.869500 22.887000 30.366300
H 29.791400 23.634700 31.025800
H 30.527800 23.937000 30.363800
H 28.060100 31.629100 2.919410
H 28.221300 32.603500 3.229900
H 28.553800 29.617200 17.483800
H 28.553200 29.621900 17.512000
H 29.572300 29.600300 17.330700
H 29.572000 29.598400 17.296900
H 29.422800 30.428300 17.834600
H 29.421100 30.435200 17.860000
H 28.501000 30.667000 18.140400
H 28.498100 30.677600 18.158800
H 29.273600 31.258300 18.372200
H 29.270000 31.270100 18.389300
H 30.193100 31.027700 18.090500
H 30.195300 31.019600 18.066300
H 30.510200 30.024400 17.398200
H 30.510400 30.026200 17.433100
H 31.117000 30.780900 17.760500
H 31.116100 30.785400 17.791700
H 28.351800 31.496900 18.678000
H 28.346900 31.512500 18.688200
H 30.041900 31.862600 18.619800
H 30.046100 31.849500 18.603900
H 31.227200 31.674400 18.310400
H 31.229900 31.665400 18.286600
H 29.124300 32.088200 18.909800
H 29.118900 32.105000 18.918600
H 28.967800 32.939900 19.448000
H 28.975100 32.918100 19.447400
H 28.036900 32.492200 19.346100
H 28.029600 32.514100 19.345600
H 30.818600 32.440800 18.835700
H 30.813900 32.455200 18.850300
H 29.986900 32.918400 19.266700
H 29.993300 32.899300 19.260600
H 28.710000 28.097400 23.680500
H 28.706900 28.086300 23.672900
H 29.269800 28.810200 24.153500
H 29.286000 28.816000 24.153500
H 29.643600 27.931300 23.362700
H 29.645300 27.932200 23.363500
H 30.384300 28.517700 23.696800
H 30.392500 28.509100 23.687200
H 31.322700 28.363600 23.387400
H 31.326000 28.343000 23.369400
H 31.206700 29.308400 24.181100
H 31.228700 29.291400 24.161300
H 32.075000 28.920800 23.693900
H 32.061600 28.949200 23.720700
H 32.520600 28.276200 23.081700
H 32.519900 28.240600 23.052600
H 32.846700 33.043100 22.681300
H 32.843100 33.034700 22.679300
H 30.207900 29.253100 24.329500
H 30.184800 29.257500 24.339500
H 29.668300 30.999700 27.291300
H 29.663500 30.949700 27.281800
H 31.097400 31.769100 27.804200
H 30.373800 31.603300 26.833400
H 30.672500 31.532300 27.785100
H 31.238700 32.113500 26.876000
H 30.373000 31.548100 26.823100
H 31.239500 32.168900 26.885500
H 32.033200 32.544900 27.433700
H 32.028700 32.494300 27.426300
H 29.400000 30.292100 29.142700
H 29.380900 30.260900 29.138100
H 29.311800 30.519700 28.136500
H 29.300400 30.478500 28.129200
H 30.168500 30.842800 28.935200
H 30.440200 30.919500 29.388500
H 30.141500 30.990500 28.436700
H 30.309800 31.187200 28.007100
H 30.956100 31.424600 28.732300
H 30.971200 31.461300 28.736900
H 31.502200 32.003100 28.085300
H 31.602400 31.662100 29.457600
H 31.743700 32.006500 28.529400
H 31.800800 31.932100 29.037000
H 32.630500 32.402900 29.337200
H 32.611800 32.370800 29.335500
H 32.542300 32.630500 28.331100
H 32.531300 32.588400 28.326500
H 30.814800 31.080200 29.660500
H 29.883500 30.355000 30.038400
H 29.909100 30.377700 30.040100
H 30.702900 30.753700 30.588300
H 30.673500 30.735800 30.588700
H 31.269800 31.390300 29.688600
H 31.568500 31.319300 30.640400
H 31.539200 31.301200 30.641500
H 32.248700 31.899600 30.182800
H 32.274000 31.922900 30.182500
950
Atoms. Timestep: 50000
H 4.038980 1.876350 22.396000
H 6.091480 4.167920 18.782700
H 3.904380 2.902790 22.409700
H 2.097460 2.138520 22.798600