ITEM: TIMESTEP
0
ITEM: NUMBER OF ATOMS
900
ITEM: BOX BOUNDS pp pp pp
5.9153331474142945e-01 3.3408466685257878e+01
5.9153331474142945e-01 3.3408466685257878e+01
5.9153331474142945e-01 3.3408466685257878e+01
ITEM: ATOMS id mol type x y z 
9072 0 3 5.95195 1.23459 0.820622 
17186 0 3 3.77365 4.9037 2.14706 
4216 0 3 3.9551 5.67283 5.35928 
10518 0 3 4.66195 4.98285 4.53208 
11633 0 3 5.41931 4.4642 5.11286 
22808 0 3 2.84393 1.17844 6.80552 
9328 0 3 2.30085 3.90794 6.99258 
18381 0 3 2.14154 2.77976 7.29619 
24642 0 3 2.34425 1.21289 9.24371 
377 0 3 3.9451 4.89557 8.28738 
16191 0 3 0.700019 3.61091 10.6946 
5813 0 3 4.03658 2.46424 10.4337 
6532 0 3 4.61911 3.62763 10.7952 
15052 0 3 1.38197 1.99142 11.5713 
12537 0 3 3.95303 0.849899 12.602 
16811 0 3 1.76446 2.61267 13.0993 
24985 0 3 5.61803 5.60926 13.1239 
11701 0 3 1.12933 1.08893 15.8625 
3605 0 3 1.11985 3.27158 15.2521 
3936 0 3 1.12992 4.54308 15.883 
924 0 3 3.67298 5.62629 16.5104 
6378 0 3 2.9526 2.17482 20.0834 
718 0 3 5.37325 0.777854 19.7074 
2676 0 3 2.92663 3.42033 19.1756 
3012 0 3 3.86818 3.96565 19.3984 
10590 0 3 4.31218 3.95694 20.4418 
11471 0 3 4.58846 3.65797 22.4433 
20036 0 3 3.14674 3.69357 26.0435 
1530 0 3 5.52215 4.08047 25.5146 
23822 0 3 0.600539 4.68268 25.7728 
15053 0 3 2.61144 2.87329 29.002 
16137 0 3 0.706209 1.26414 30.5087 
19087 0 3 4.09945 3.04266 30.3867 
23292 0 3 5.25083 5.50434 31.8607 
19790 0 3 5.16186 7.12381 1.97163 
2379 0 3 1.86443 8.06819 2.80825 
3847 0 3 5.95821 9.81022 4.92564 
12286 0 3 5.55108 7.69759 9.51411 
22253 0 3 2.82954 6.68695 10.6557 
23325 0 3 0.69306 8.01119 12.8609 
9896 0 3 4.40363 8.83967 12.5059 
18472 0 3 0.8942 6.47183 16.418 
6647 0 3 0.593079 7.40137 15.6866 
107 0 3 2.82893 6.42998 16.6711 
24879 0 3 3.48793 9.65847 15.35 
21101 0 3 0.904821 7.52284 18.4025 
26357 0 3 1.98927 8.24319 18.5089 
1399 0 3 5.66508 8.93081 17.1015 
11287 0 3 2.37194 6.84535 20.0356 
8222 0 3 4.72052 6.29146 19.3673 
25579 0 3 5.17577 8.99695 19.7945 
15327 0 3 4.97342 9.84821 19.1277 
21152 0 3 2.17733 7.29627 22.1928 
9043 0 3 4.45125 6.46928 23.908 
985 0 3 1.30757 10.2384 23.4976 
8454 0 3 1.80599 8.87014 26.2506 
16444 0 3 3.1347 9.48941 33.0978 
13589 0 3 3.19246 14.053 9.4376 
25376 0 3 2.54221 12.9541 9.97963 
4820 0 3 4.06116 12.0286 11.4016 
20327 0 3 5.12575 15.2227 9.777 
26397 0 3 2.18944 11.9197 12.3524 
25415 0 3 4.97569 13.3442 12.33 
9387 0 3 2.22727 12.8128 13.7541 
23594 0 3 5.48948 15.0093 13.6491 
20827 0 3 5.58469 13.5219 16.3094 
15010 0 3 1.45267 15.921 16.6197 
11764 0 3 1.37378 12.8286 19.9962 
26876 0 3 4.07924 14.6714 20.0604 
19188 0 3 1.7934 12.4401 27.5709 
19371 0 3 1.36664 15.9629 26.2741 
17018 0 3 5.60601 15.7549 27.647 
14049 0 3 2.72624 12.429 29.0866 
7745 0 3 0.830634 16.4184 28.964 
10752 0 3 3.10421 16.7071 29.9172 
270 0 3 1.08627 15.869 32.2047 
25085 0 3 1.16161 17.0905 1.17628 
6942 0 3 1.67179 20.264 4.1737 
20402 0 3 0.703611 22.0151 4.2057 
19159 0 3 3.11638 18.74 5.55204 
17480 0 3 3.27071 17.4279 6.03957 
25345 0 3 2.15818 19.9729 5.23439 
19589 0 3 4.04633 20.3747 7.48654 
25381 0 3 5.23107 21.7981 7.23999 
3569 0 3 4.82857 17.2522 8.71737 
1757 0 3 0.786045 21.7638 14.1931 
23599 0 3 6.0017 22.4531 17.6368 
21841 0 3 0.767961 19.2637 20.1621 
17483 0 3 2.70963 20.3501 19.6718 
13882 0 3 1.92113 17.4811 20.7295 
12387 0 3 4.14663 19.4801 21.8548 
22117 0 3 0.756663 19.4448 24.1925 
14021 0 3 2.10642 22.1569 22.62 
6085 0 3 4.2432 22.2818 24.0664 
5445 0 3 1.50354 21.5488 24.3394 
8816 0 3 3.03323 17.4556 27.1845 
15703 0 3 3.23435 18.593 27.7091 
7416 0 3 3.27572 17.7577 29.8467 
1215 0 3 1.77489 19.5301 30.7487 
23409 0 3 3.90818 20.5855 31.1369 
15098 0 3 5.75053 19.7469 29.7824 
14793 0 3 2.97509 19.3678 33.4011 
1259 0 3 1.65486 24.2496 1.29044 
979 0 3 3.49065 25.7076 1.6746 
15105 0 3 3.8503 27.1173 1.70378 
15572 0 3 4.75362 25.1743 5.44377 
19980 0 3 5.92792 24.8057 4.68226 
4947 0 3 1.75497 27.4476 5.86671 
18058 0 3 2.31755 24.5702 6.97911 
6384 0 3 5.78877 25.5501 7.62799 
6667 0 3 5.53586 23.4127 9.35448 
5727 0 3 3.28436 24.6975 9.56068 
25334 0 3 5.01233 25.0461 7.9486 
16724 0 3 5.13526 24.4807 9.85509 
4680 0 3 1.60857 27.3331 9.80553 
7355 0 3 0.697698 23.3775 12.7622 
8120 0 3 2.24101 24.1777 11.7417 
16710 0 3 3.10013 25.7131 12.5634 
26929 0 3 2.56995 27.0907 13.8686 
5886 0 3 3.49624 26.5702 15.282 
2189 0 3 2.77335 23.7195 18.0021 
24973 0 3 1.68919 23.107 22.7191 
24011 0 3 1.06619 23.5507 23.5395 
12362 0 3 3.02405 22.6989 25.0265 
24760 0 3 0.797757 27.872 25.8152 
7719 0 3 2.73039 23.5159 27.3111 
20951 0 3 5.17984 24.032 26.5526 
15920 0 3 4.12282 25.6678 26.3551 
3712 0 3 4.63611 24.5379 27.5402 
16844 0 3 0.96396 27.1034 27.0136 
14390 0 3 5.58606 23.7212 28.6971 
5213 0 3 2.35886 25.1851 29.6069 
25809 0 3 0.609107 27.6488 28.0467 
16517 0 3 1.38129 25.3655 29.8776 
20405 0 3 3.93748 22.7901 31.9253 
23122 0 3 1.35976 25.6572 32.4714 
14223 0 3 3.88877 25.7202 31.829 
20690 0 3 1.92485 29.068 0.654667 
8408 0 3 4.61269 29.6106 1.81692 
19168 0 3 3.95882 32.8107 0.834115 
25960 0 3 2.93707 32.7698 3.64783 
25333 0 3 4.64602 29.8607 5.58625 
7436 0 3 2.55032 30.6677 6.25477 
14337 0 3 3.28099 31.8328 8.92617 
26970 0 3 5.64208 33.2055 10.7291 
19971 0 3 1.51315 29.043 14.7422 
3613 0 3 4.75528 28.1483 14.6123 
24991 0 3 3.70569 28.9357 16.3045 
24874 0 3 1.42059 33.0998 15.3348 
26300 0 3 3.5045 32.7884 15.3344 
24530 0 3 4.47172 33.3164 16.5643 
17597 0 3 4.27144 30.2808 18.809 
9893 0 3 4.56004 32.7727 18.5596 
2665 0 3 1.39865 32.5128 20.4029 
20455 0 3 4.7779 33.263 22.9167 
23153 0 3 5.25277 32.671 24.7457 
23039 0 3 3.04237 32.5339 30.7216 
26763 0 3 3.45969 28.0734 31.6313 
10125 0 3 3.07624 33.1096 31.8256 
10595 0 3 6.07039 5.34781 1.24912 
7738 0 3 6.23871 3.18346 2.85195 
11171 0 3 6.71599 4.18724 3.46591 
26582 0 3 9.0622 2.27671 6.86496 
23984 0 3 11.0542 2.61049 7.5075 
3738 0 3 8.19502 2.28035 7.97279 
24888 0 3 10.8426 4.91979 9.46186 
20614 0 3 9.56093 2.03336 9.76045 
4568 0 3 7.0479 4.32237 11.0076 
14330 0 3 6.78272 3.03299 12.918 
26749 0 3 8.38812 5.96196 12.1881 
1227 0 3 8.22562 1.9093 14.7915 
26100 0 3 9.42367 1.73525 15.2318 
11568 0 3 7.25597 6.00029 18.3633 
1730 0 3 10.9046 4.89022 18.5127 
5787 0 3 7.449 3.98883 19.7088 
23446 0 3 7.53825 5.25443 21.0718 
20954 0 3 6.65546 1.63891 24.5439 
3920 0 3 7.47948 4.05752 26.9109 
22507 0 3 8.0233 2.29099 30.9256 
20411 0 3 7.02572 5.46804 31.1396 
21654 0 3 9.76228 4.75753 30.4645 
11025 0 3 6.92421 2.96857 33.2971 
24780 0 3 7.40793 4.57523 32.7907 
8405 0 3 10.7907 6.42357 1.67509 
858 0 3 11.1858 6.9741 6.38363 
20633 0 3 9.11091 7.90054 6.27424 
6556 0 3 9.95419 11.1192 6.42963 
6395 0 3 7.35732 7.28885 9.69773 
13516 0 3 10.8757 7.46279 9.23529 
9620 0 3 6.23883 9.48428 7.90706 
15680 0 3 8.86286 9.48005 11.36 
18109 0 3 7.91985 11.4394 11.5103 
6453 0 3 6.19344 7.87177 12.4748 
4604 0 3 6.4332 6.88587 15.1302 
20698 0 3 10.9524 6.84388 13.8469 
25058 0 3 9.73257 10.0506 14.7883 
16437 0 3 7.31295 7.25685 15.5561 
25207 0 3 6.26129 11.4837 17.9807 
2849 0 3 7.95053 11.059 18.8195 
26084 0 3 8.98985 10.7594 19.8115 
18245 0 3 6.06863 6.56042 22.049 
14183 0 3 6.17554 7.83027 24.0502 
35 0 3 8.83582 7.88559 23.213 
23799 0 3 8.28523 10.4551 27.0021 
15998 0 3 10.2223 10.1255 29.8682 
9710 0 3 11.2905 7.25769 31.8454 
2240 0 3 8.39656 11.0133 33.1757 
20706 0 3 9.96188 13.9505 3.01177 
7235 0 3 8.70358 11.7564 4.95116 
6897 0 3 6.85397 11.9544 7.51561 
4992 0 3 10.8071 15.9008 7.09649 
5668 0 3 7.77137 11.6143 9.18015 
7963 0 3 8.0269 13.7349 9.59494 
26441 0 3 10.5518 14.5444 8.12217 
1040 0 3 8.41651 16.4511 11.8734 
26878 0 3 6.58589 11.7864 14.149 
12483 0 3 8.10736 14.429 13.3611 
2736 0 3 10.9883 13.9976 14.2015 
11768 0 3 10.5007 13.2152 15.9394 
26659 0 3 9.10615 14.2926 17.6115 
6160 0 3 10.1574 13.5231 18.9126 
1503 0 3 10.6549 14.5733 19.536 
24288 0 3 11.4194 14.8688 20.3503 
21485 0 3 11.4372 16.284 20.809 
4999 0 3 8.77376 14.4292 23.3132 
25329 0 3 9.22788 13.8273 25.2837 
18054 0 3 11.377 14.3534 24.6509 
5680 0 3 11.3592 13.2209 27.6056 
12236 0 3 8.45083 15.0583 27.6723 
6391 0 3 8.20904 13.8211 27.2886 
16207 0 3 6.43139 16.6293 26.4119 
26402 0 3 7.01601 11.7683 30.5999 
20396 0 3 9.46149 12.7232 30.9466 
16679 0 3 9.00619 13.4562 30.3276 
3025 0 3 10.6985 15.4189 31.586 
24787 0 3 9.77274 19.6772 1.52359 
22683 0 3 7.99947 21.7133 0.748276 
3076 0 3 9.92251 19.059 2.78743 
15997 0 3 6.83938 17.6931 5.83475 
22487 0 3 9.78645 17.1992 4.55982 
26465 0 3 7.27749 21.7956 5.85556 
21229 0 3 8.94695 20.6648 5.24906 
127 0 3 10.2396 21.1851 4.40812 
13510 0 3 9.49947 17.3116 6.71066 
25307 0 3 6.16724 19.4707 7.24326 
13251 0 3 8.9678 20.0014 7.08909 
22520 0 3 11.3156 20.2226 6.36362 
23613 0 3 6.30009 21.7668 7.44507 
4620 0 3 10.5539 21.9767 7.6783 
11359 0 3 11.3269 20.9272 9.20143 
26114 0 3 9.44959 17.776 10.6154 
9002 0 3 6.67869 19.0172 11.3704 
24821 0 3 7.87935 18.6063 13.1519 
8535 0 3 9.9073 19.5324 20.1074 
2400 0 3 6.30838 18.5359 23.7207 
26279 0 3 6.87273 19.0456 22.9034 
7585 0 3 11.0602 17.5944 25.8243 
22130 0 3 8.68398 20.919 27.6857 
13472 0 3 7.15541 17.0886 31.3608 
18657 0 3 9.45067 21.7503 31.5658 
26928 0 3 10.0878 22.2139 30.9043 
7537 0 3 9.79568 20.3569 33.1227 
23098 0 3 10.2361 19.2438 33.345 
8207 0 3 6.09781 20.7067 33.1229 
26376 0 3 7.70148 24.1632 1.39945 
11344 0 3 8.75907 26.3338 2.52482 
19394 0 3 10.3745 27.8856 4.20627 
17790 0 3 10.8764 26.3014 3.19631 
6517 0 3 11.1918 23.7603 4.25767 
14850 0 3 11.3964 27.4291 5.93441 
17603 0 3 6.46987 25.2301 6.90947 
8271 0 3 10.2973 25.6806 7.25646 
20251 0 3 9.80603 27.6313 7.2504 
5404 0 3 9.37935 23.259 9.25918 
24105 0 3 11.1901 27.8299 8.83712 
21589 0 3 8.94433 22.6846 10.8708 
864 0 3 6.98282 27.2591 10.0086 
20458 0 3 9.34811 23.9598 12.195 
15321 0 3 7.64124 26.6069 11.69 
26250 0 3 9.02536 27.1392 11.5513 
16155 0 3 10.0702 27.0359 12.5892 
16192 0 3 8.44095 23.7773 14.8759 
1585 0 3 6.74361 24.6557 13.9201 
15376 0 3 6.7712 25.8816 13.5443 
23588 0 3 11.4762 27.5062 15.3038 
25559 0 3 10.6071 27.1383 17.2831 
7016 0 3 10.726 24.2029 19.7634 
24430 0 3 9.6135 24.8336 21.8984 
20622 0 3 11.2786 25.6122 20.7743 
20371 0 3 9.0018 26.3014 25.6554 
19874 0 3 7.89014 23.5124 26.1689 
23341 0 3 11.5283 27.2778 28.4456 
9946 0 3 10.3606 26.727 28.2388 
7039 0 3 10.9523 24.037 30.4275 
13876 0 3 8.8687 22.6019 33.2624 
7631 0 3 6.56332 24.5074 32.0818 
10493 0 3 8.4917 27.0738 33.1573 
1196 0 3 8.80374 30.9317 1.81541 
6566 0 3 6.63219 29.8719 3.76364 
8824 0 3 8.0669 30.3541 2.48758 
3223 0 3 7.0691 32.834 4.07462 
15440 0 3 7.13043 31.393 7.38574 
13650 0 3 8.15571 31.5161 6.20641 
25075 0 3 8.88173 33.3627 6.9043 
3771 0 3 8.06328 29.0855 9.2107 
14260 0 3 7.06624 28.7642 10.8367 
24838 0 3 7.75833 29.4676 11.4633 
25989 0 3 9.33406 30.9588 9.87058 
24260 0 3 9.21311 31.8863 10.3572 
12940 0 3 9.5708 32.5782 11.2638 
16172 0 3 6.15269 28.5491 12.0066 
5684 0 3 7.08857 28.4893 14.4101 
13947 0 3 8.1746 29.3311 13.6435 
7139 0 3 8.33768 28.698 15.2631 
23671 0 3 9.47865 29.4278 17.6141 
22675 0 3 6.20538 32.9343 18.2133 
9213 0 3 7.32018 32.5137 20.1121 
7444 0 3 10.9766 28.9471 24.7393 
8322 0 3 7.88598 31.5269 31.6601 
23746 0 3 12.3783 3.63417 3.5621 
6323 0 3 12.9331 3.54741 5.76044 
6390 0 3 16.2672 2.72338 5.69909 
1917 0 3 13.576 5.11843 5.95805 
17525 0 3 16.0518 5.95025 14.8523 
24284 0 3 16.5489 2.1962 16.9002 
3408 0 3 13.1183 3.6208 15.6822 
15091 0 3 12.7829 4.48567 16.5735 
18493 0 3 11.6541 6.02932 17.2585 
22975 0 3 16.7265 2.88842 20.5533 
9625 0 3 15.6006 4.55341 19.4269 
294 0 3 15.8976 1.72984 27.5847 
7418 0 3 12.2682 2.70262 27.7463 
20921 0 3 15.7403 5.662 27.4352 
26580 0 3 12.9417 1.3803 29.0213 
16641 0 3 16.8054 2.68268 29.0355 
19501 0 3 12.8558 5.34341 28.1704 
10508 0 3 11.8441 5.39593 30.2865 
20492 0 3 15.3104 4.55298 30.9161 
15519 0 3 12.041 6.34218 6.04038 
24908 0 3 14.4307 11.1741 4.68456 
7566 0 3 14.9597 8.72638 8.03391 
26622 0 3 12.136 10.4836 9.09888 
16064 0 3 14.8353 9.99477 8.17051 
5393 0 3 14.5037 10.1427 9.23954 
19140 0 3 16.8482 7.5435 11.1498 
18158 0 3 13.225 8.27478 10.5853 
19543 0 3 11.8721 9.8826 10.503 
2687 0 3 12.9386 7.3427 11.8177 
12373 0 3 16.2271 8.55479 11.5612 
18471 0 3 12.7437 9.82534 12.1162 
598 0 3 13.9323 8.55091 13.6031 
4377 0 3 16.4802 6.74349 15.5762 
19152 0 3 13.2378 8.96882 15.3993 
17611 0 3 14.2386 10.5586 16.3756 
396 0 3 14.5109 11.1308 15.4044 
26598 0 3 14.8949 6.74056 17.9368 
8667 0 3 11.8042 11.4638 18.4563 
1073 0 3 14.7419 10.136 18.3091 
10600 0 3 13.4497 10.8206 19.5904 
4416 0 3 12.5134 8.63482 21.0453 
10569 0 3 13.8801 11.1395 25.2176 
7299 0 3 15.6037 10.2134 26.5108 
21293 0 3 15.4085 9.59283 29.6072 
15290 0 3 16.9161 8.12074 28.343 
9891 0 3 13.152 10.8164 30.659 
7425 0 3 14.4232 16.0289 1.48373 
11898 0 3 11.9701 11.6259 3.96168 
24051 0 3 12.0704 13.8181 2.47142 
20580 0 3 12.1995 13.558 5.51247 
23398 0 3 13.5604 14.2287 5.65669 
8433 0 3 14.3425 13.9326 4.88888 
11929 0 3 12.7564 16.2852 6.05464 
17894 0 3 12.1394 14.0097 7.43725 
15432 0 3 14.1318 13.4426 6.75318 
14083 0 3 15.1801 16.7218 6.32559 
25041 0 3 16.8182 14.0048 8.72235 
111 0 3 14.1219 16.6197 9.48397 
20606 0 3 15.1668 14.934 10.2129 
18354 0 3 14.2431 14.4209 9.99819 
20361 0 3 12.9016 11.6899 12.7234 
12212 0 3 16.5657 11.971 12.5563 
5452 0 3 12.1907 13.9825 12.5251 
21036 0 3 14.4028 12.9907 13.9358 
17484 0 3 16.8679 13.8137 13.9793 
11837 0 3 15.4023 12.4084 17.6847 
5733 0 3 14.4541 15.0314 20.002 
664 0 3 16.2056 14.3524 19.7874 
19768 0 3 12.2357 15.6091 19.0262 
8315 0 3 13.6923 15.1104 21.7779 
21585 0 3 14.6336 16.0636 21.9811 
15915 0 3 12.4557 15.0375 23.0606 
9804 0 3 15.3505 15.4648 23.4125 
13464 0 3 13.0652 14.1815 26.7691 
6140 0 3 11.8189 14.7856 26.5488 
3431 0 3 15.3455 15.8872 26.4447 
11842 0 3 14.7478 12.9201 29.5368 
21249 0 3 13.0521 11.9987 30.9592 
9943 0 3 16.6135 12.6892 30.6432 
12322 0 3 14.1967 16.4075 31.4995 
8969 0 3 13.4966 13.7139 33.1814 
25506 0 3 14.1977 14.9993 32.8305 
21112 0 3 13.2634 16.7872 32.558 
13377 0 3 12.42 20.1168 0.674756 
8587 0 3 15.7792 19.3128 0.634108 
7243 0 3 14.5352 19.0057 3.25142 
24434 0 3 13.5088 19.9453 3.93273 
11743 0 3 16.5287 22.3098 3.86283 
25004 0 3 14.6719 21.8407 4.27247 
10374 0 3 14.4065 20.6561 4.61087 
13252 0 3 14.4215 18.3873 7.50584 
10122 0 3 12.8752 18.0096 9.3427 
26123 0 3 15.9893 17.2502 9.40781 
10178 0 3 12.7969 19.3939 8.20003 
13008 0 3 14.9768 21.7856 8.35116 
3598 0 3 13.2524 19.1489 10.5149 
21143 0 3 14.7598 18.6248 11.5387 
11233 0 3 14.0425 18.795 22.6276 
11029 0 3 13.1561 19.0858 23.9368 
459 0 3 12.3843 21.9909 23.4519 
7641 0 3 14.1229 21.7443 22.4859 
12111 0 3 12.2099 17.6595 27.7703 
18592 0 3 15.195 17.0451 27.8649 
24946 0 3 13.6622 17.9085 28.4622 
10926 0 3 12.0844 18.1856 31.203 
19892 0 3 16.1504 18.0935 31.5526 
5791 0 3 13.4522 18.5066 33.205 
25549 0 3 14.8522 19.9868 32.6173 
17809 0 3 14.7637 22.8453 2.04156 
19972 0 3 12.9891 22.9237 2.69937 
20186 0 3 12.6933 24.7322 5.36405 
9937 0 3 15.5365 25.4785 5.04448 
11950 0 3 12.5256 27.6829 7.46931 
9722 0 3 14.4042 23.4398 9.47743 
8371 0 3 16.092 24.0044 9.85658 
26080 0 3 12.1746 25.8492 9.8278 
23316 0 3 15.5257 24.7631 10.8166 
21197 0 3 16.8942 23.6554 11.7356 
20888 0 3 12.1319 26.0648 12.2725 
19671 0 3 12.9978 26.5561 11.7872 
14081 0 3 12.7951 22.8884 16.0746 
6935 0 3 16.5256 25.8976 20.9718 
25602 0 3 12.9092 26.391 22.1105 
13673 0 3 14.4199 27.8176 20.7585 
22851 0 3 14.3369 25.0271 25.8174 
12335 0 3 13.3695 24.788 26.4343 
13817 0 3 16.8265 25.6881 26.9065 
15182 0 3 12.3423 27.3089 26.846 
17171 0 3 12.7846 24.2052 29.1681 
9624 0 3 15.2416 22.9421 29.5457 
6494 0 3 12.1053 25.1806 28.7925 
8633 0 3 16.8657 27.9103 29.183 
9420 0 3 13.0824 27.9415 10.1861 
5902 0 3 16.1941 28.5357 11.2243 
14852 0 3 13.5113 28.3098 11.7197 
19984 0 3 13.268 29.9155 12.3334 
4081 0 3 12.4278 29.4242 16.0663 
23499 0 3 12.3766 28.812 17.0428 
14375 0 3 15.5467 32.7936 18.5623 
3393 0 3 16.1808 31.0145 19.7225 
23604 0 3 12.8114 29.9946 24.7122 
20787 0 3 16.5313 28.9032 26.6196 
17233 0 3 14.8142 31.5091 26.5341 
908 0 3 15.9677 30.6278 26.4336 
12528 0 3 11.6202 30.6447 28.745 
20269 0 3 12.9175 28.6969 30.5377 
8736 0 3 15.6488 30.4686 30.1005 
26087 0 3 20.7958 1.78294 2.36973 
25796 0 3 18.7021 0.878069 4.06818 
10140 0 3 20.5496 1.4938 4.90505 
25988 0 3 22.2789 3.1197 5.98234 
15306 0 3 21.4094 1.36502 6.16394 
918 0 3 22.4403 4.58576 9.65361 
24964 0 3 22.2724 4.33656 10.6026 
17017 0 3 20.9667 2.13303 11.5404 
18056 0 3 18.2942 3.98959 12.0382 
17773 0 3 21.1085 5.06705 13.0982 
20629 0 3 20.3053 1.84456 15.7371 
10977 0 3 20.4308 2.1199 18.1062 
10425 0 3 18.0979 4.53895 17.8776 
8663 0 3 20.4453 0.602759 19.0308 
20384 0 3 19.4052 3.80897 18.9074 
19524 0 3 17.565 4.17936 21.0674 
26839 0 3 20.3699 3.12569 20.7998 
1933 0 3 18.4764 4.07229 23.2364 
23402 0 3 20.3381 3.47538 22.7064 
3998 0 3 18.1594 1.32853 26.7701 
4704 0 3 20.1693 0.598701 26.1208 
12250 0 3 20.183 3.53344 27.7653 
12829 0 3 20.0299 2.6634 27.1977 
20504 0 3 21.7048 1.67081 29.0132 
10748 0 3 17.7528 2.97918 28.4416 
1130 0 3 18.3246 1.30815 29.797 
19776 0 3 21.6392 8.31049 9.5753 
1467 0 3 17.1518 9.70804 8.98677 
723 0 3 19.749 11.5249 8.66878 
19150 0 3 21.7689 10.701 9.39049 
21722 0 3 19.494 8.43686 12.9371 
20960 0 3 18.0415 9.77689 13.8555 
3297 0 3 17.6851 9.37728 16.4484 
14952 0 3 19.4078 8.46134 16.7631 
26222 0 3 18.9223 10.8496 19.8053 
644 0 3 17.8937 7.56899 26.5471 
2129 0 3 17.6984 7.64268 29.0427 
10881 0 3 18.6147 14.2523 1.46562 
18020 0 3 21.9943 16.9784 1.55238 
25286 0 3 22.2697 11.9744 3.24385 
26389 0 3 18.4585 15.9462 3.28275 
24981 0 3 21.3031 13.2948 5.4424 
18147 0 3 20.3386 13.7084 5.87316 
19708 0 3 20.3244 14.5045 7.57699 
10931 0 3 18.029 14.8458 9.46228 
13806 0 3 17.8386 12.4011 11.3964 
21665 0 3 18.1361 14.671 12.2974 
17435 0 3 22.2035 13.2609 13.431 
13294 0 3 19.2577 13.4408 14.8485 
1756 0 3 20.9197 15.4213 14.4487 
17762 0 3 20.5315 12.523 15.729 
3114 0 3 22.0074 12.3166 15.9734 
21882 0 3 19.8808 16.0851 15.4148 
11447 0 3 19.2631 16.8055 16.2199 
20164 0 3 20.537 14.452 17.4021 
2381 0 3 19.5973 13.9514 18.7902 
9927 0 3 20.0883 16.5506 18.2706 
17620 0 3 21.5415 12.9783 19.9701 
3705 0 3 20.4589 16.2839 26.4282 
10797 0 3 17.3172 13.5185 29.0482 
16197 0 3 17.3604 18.089 2.1812 
5033 0 3 20.9377 21.2644 4.19229 
10136 0 3 18.6838 20.6526 4.5823 
5930 0 3 19.7269 21.4357 12.5424 
8543 0 3 17.9792 20.2647 13.5984 
5769 0 3 20.2457 21.8879 13.5747 
3728 0 3 19.35 21.6578 17.3642 
20222 0 3 21.6582 17.1567 20.6038 
16910 0 3 17.074 21.1592 20.1215 
8339 0 3 19.5768 22.4244 19.4526 
10588 0 3 20.681 21.4011 21.6744 
360 0 3 22.2325 19.9552 27.6509 
16353 0 3 19.6393 18.8581 30.1403 
24550 0 3 17.2625 18.3716 33.0555 
674 0 3 18.8256 25.4202 5.40231 
17893 0 3 17.3317 23.6551 7.41949 
3997 0 3 18.2094 26.6193 9.42267 
10644 0 3 20.874 27.8065 7.99279 
26741 0 3 21.4394 26.0279 9.72014 
5914 0 3 21.926 26.6342 11.5927 
732 0 3 21.7633 23.5165 13.8562 
1179 0 3 21.6969 24.6626 18.2749 
10507 0 3 21.628 23.9857 20.4818 
5949 0 3 21.2489 26.0082 20.979 
17631 0 3 18.5247 23.4336 23.4036 
17245 0 3 20.7399 24.1172 23.3672 
5736 0 3 17.6899 27.1331 23.0279 
8874 0 3 19.9101 26.4037 23.7457 
12430 0 3 20.8767 24.8346 26.2852 
26234 0 3 17.2339 26.1227 28.1377 
16149 0 3 21.0671 27.7759 28.173 
10333 0 3 17.2799 24.6826 30.3778 
21390 0 3 19.4308 24.997 30.5655 
4687 0 3 19.982 27.0548 30.9882 
23469 0 3 20.5071 33.2491 5.53653 
21795 0 3 21.4172 30.7977 11.2028 
18948 0 3 17.7398 33.1957 11.8553 
499 0 3 18.7039 32.4123 16.8845 
5661 0 3 22.3553 31.8147 17.2676 
22386 0 3 21.8025 33.2754 17.1025 
18140 0 3 21.7884 28.3989 20.4424 
1820 0 3 17.8666 30.0789 20.5646 
20481 0 3 22.3233 30.4014 21.4621 
13374 0 3 20.0467 31.9163 20.7446 
9422 0 3 20.9392 33.3009 20.7251 
10011 0 3 18.0803 29.5339 23.5746 
6121 0 3 22.0468 28.7663 24.0198 
24421 0 3 19.9156 28.1222 26.0206 
14215 0 3 17.6952 30.0147 25.1791 
24910 0 3 17.9659 30.9593 25.8274 
19022 0 3 20.1574 31.3001 25.3361 
16126 0 3 20.561 29.3216 29.5464 
20998 0 3 19.7553 28.6048 28.8562 
19339 0 3 20.2079 32.9944 29.1068 
2726 0 3 18.84 32.6934 28.0687 
26594 0 3 20.477 32.1606 30.2476 
4079 0 3 22.2791 32.0008 30.1738 
3959 0 3 27.6082 1.1843 4.20233 
24558 0 3 22.7674 2.32859 4.81887 
8172 0 3 25.4672 1.41842 7.18567 
3129 0 3 23.2296 0.633162 8.53789 
20398 0 3 23.4866 4.38195 10.3629 
17583 0 3 23.6278 1.28217 11.8822 
23212 0 3 22.6782 3.27647 13.0819 
10474 0 3 26.1147 2.69579 13.2733 
5415 0 3 25.5179 4.23509 15.9674 
16779 0 3 22.8754 4.3873 16.7121 
20856 0 3 24.8897 3.73065 18.2869 
26372 0 3 22.8444 0.909849 19.8367 
17201 0 3 24.7148 3.57854 21.7215 
232 0 3 26.4479 2.14199 23.1518 
10912 0 3 26.5385 4.11532 23.6862 
2717 0 3 23.1024 0.796107 24.8337 
19062 0 3 26.6562 3.91008 29.4021 
20615 0 3 26.6159 1.5772 32.1297 
20346 0 3 23.408 7.65265 1.53235 
10429 0 3 23.7586 7.22495 3.55871 
28 0 3 25.9263 10.8431 6.35201 
17465 0 3 27.7337 8.27183 11.3135 
16635 0 3 25.7756 8.97522 13.3366 
4949 0 3 23.0598 11.0408 14.4368 
23996 0 3 25.6869 10.2778 14.6979 
3310 0 3 27.2536 10.4103 14.3194 
21658 0 3 25.9744 8.17877 17.8611 
23293 0 3 26.0037 11.1944 17.542 
11360 0 3 23.4583 6.12685 19.3886 
13582 0 3 23.4415 8.34803 19.3729 
5944 0 3 25.0402 9.51631 21.2172 
20781 0 3 25.88 7.04682 25.5577 
12557 0 3 24.5751 8.87863 26.8038 
12552 0 3 27.8142 11.4036 29.6163 
21214 0 3 26.5525 9.09282 30.4242 
19024 0 3 26.5654 11.1093 31.7196 
10478 0 3 27.7661 16.1441 5.12133 
373 0 3 26.0579 12.2302 8.32894 
14716 0 3 23.7741 15.6923 8.15563 
1220 0 3 25.2033 16.6361 8.21162 
8353 0 3 26.6684 14.181 10.0831 
18459 0 3 25.4303 12.8555 14.5867 
23332 0 3 26.907 11.8179 13.3624 
24831 0 3 23.7588 16.844 13.6915 
12220 0 3 27.0596 13.2274 15.5066 
3676 0 3 26.0238 15.0948 15.9819 
10898 0 3 23.9256 13.1399 18.8062 
9612 0 3 22.8465 13.4812 17.8121 
13600 0 3 27.5559 16.2264 17.1168 
97 0 3 26.5977 16.9623 21.7171 
7725 0 3 25.0414 16.7611 24.068 
22334 0 3 26.1871 15.6758 22.7665 
24905 0 3 23.0439 15.8165 24.3513 
22995 0 3 27.4293 16.6833 25.1984 
20085 0 3 25.3539 13.5748 26.5907 
12824 0 3 25.3882 15.8277 27.6141 
5399 0 3 25.6152 15.6803 28.6608 
15594 0 3 26.424 13.078 29.8419 
11480 0 3 26.6952 15.6356 30.303 
5043 0 3 26.1153 21.6953 1.35823 
6789 0 3 23.5785 18.8105 3.2174 
24088 0 3 26.9562 18.3929 3.29677 
13300 0 3 25.0057 21.3329 7.04511 
26577 0 3 26.1891 17.4291 8.62746 
20999 0 3 26.3899 17.8859 12.6707 
5025 0 3 25.6926 19.5833 12.5716 
15014 0 3 22.7337 17.744 13.7041 
7545 0 3 23.7945 18.8763 14.069 
502 0 3 27.6872 21.947 13.6697 
5005 0 3 27.5622 20.8667 15.0702 
1589 0 3 23.1611 17.9853 16.7184 
5811 0 3 26.3629 20.6417 18.6004 
20693 0 3 26.3187 17.7226 19.2219 
24775 0 3 22.8949 19.8368 18.9397 
5119 0 3 24.9745 20.9048 20.5778 
9584 0 3 26.1027 21.9976 19.1521 
10924 0 3 27.4153 17.6556 21.5778 
20104 0 3 24.8432 19.3231 21.5656 
13793 0 3 26.7396 19.3227 22.1712 
20197 0 3 26.2891 21.936 22.0225 
17003 0 3 22.7958 18.925 22.6528 
9708 0 3 23.1625 20.7859 24.0687 
1469 0 3 26.8733 22.0692 22.9033 
282 0 3 24.4999 18.2755 25.2418 
7506 0 3 25.817 19.7418 25.7884 
5993 0 3 24.7657 17.172 26.9879 
23731 0 3 27.2952 19.3964 26.1478 
22833 0 3 27.6593 22.2768 26.2217 
12895 0 3 24.8086 19.6343 28.2879 
10114 0 3 26.2754 19.5508 29.2048 
23557 0 3 24.6267 21.7544 28.3601 
1258 0 3 27.0671 21.3234 29.484 
1387 0 3 25.7325 26.6989 6.68397 
23572 0 3 23.3205 24.8524 9.35721 
17458 0 3 24.5674 25.429 7.97714 
7764 0 3 22.8798 25.302 10.2245 
24258 0 3 27.7879 27.6459 11.1293 
13217 0 3 26.463 27.8808 17.6747 
12207 0 3 25.8005 23.3393 20.5298 
10517 0 3 22.5012 27.5399 18.9733 
15910 0 3 24.7383 22.8753 21.9318 
7650 0 3 25.2345 26.8389 21.0221 
18628 0 3 24.4548 22.991 24.173 
13267 0 3 26.9339 23.3377 23.6362 
23397 0 3 26.8099 25.3837 23.0392 
7799 0 3 26.9631 23.3787 26.0883 
11463 0 3 23.294 24.3582 24.4594 
26720 0 3 23.8365 25.0459 26.405 
19177 0 3 26.0099 25.9966 26.3629 
18568 0 3 22.9877 23.8428 27.9475 
3042 0 3 25.6278 23.4036 31.8693 
19384 0 3 27.1513 28.8525 0.602324 
12081 0 3 26.3427 28.6371 2.84387 
12086 0 3 24.9499 31.3994 5.3547 
17056 0 3 24.0828 32.0692 4.94366 
833 0 3 27.668 29.7342 8.04914 
8711 0 3 27.2948 30.9868 8.77165 
22831 0 3 24.9748 32.8335 13.6256 
12436 0 3 26.7123 32.7486 16.5992 
4859 0 3 26.0472 31.884 18.8457 
25808 0 3 25.6086 32.619 19.5804 
18099 0 3 27.7035 32.7035 20.0701 
14374 0 3 27.0754 30.2337 21.2568 
20643 0 3 26.7722 30.1067 22.5681 
10146 0 3 23.8313 30.0715 24.6636 
2008 0 3 23.5291 31.8088 25.4463 
8233 0 3 24.368 31.6188 24.6155 
7227 0 3 25.7152 29.359 27.3045 
13168 0 3 25.6819 31.3013 26.6925 
6587 0 3 24.1117 30.5564 27.978 
12538 0 3 25.466 28.1668 31.6411 
2778 0 3 26.079 29.8589 33.3367 
12234 0 3 26.6378 32.1306 32.4789 
24615 0 3 28.4774 1.15083 1.21975 
19657 0 3 29.9551 1.15294 0.845605 
19001 0 3 29.0461 2.96496 1.04025 
3608 0 3 29.1599 3.69773 3.63939 
12035 0 3 30.6242 2.98577 5.67539 
7699 0 3 28.1394 2.07322 6.50192 
20490 0 3 28.6361 4.0616 6.07232 
5282 0 3 30.9515 5.92201 6.27562 
18967 0 3 33.1113 4.31737 7.84732 
8013 0 3 31.9889 1.07446 9.60982 
3965 0 3 33.0898 2.55897 8.34927 
17292 0 3 30.658 0.96519 11.2413 
6495 0 3 32.8148 1.58962 13.0363 
25290 0 3 31.3318 3.58166 13.2121 
22644 0 3 29.9113 4.26282 13.2627 
25755 0 3 29.224 1.60642 14.0739 
18443 0 3 31.7811 1.54117 14.4992 
20971 0 3 30.2101 2.18275 15.5814 
12685 0 3 28.8506 3.21687 17.805 
21508 0 3 29.6142 5.58199 19.0118 
403 0 3 28.0839 5.55337 24.0039 
14133 0 3 30.0425 4.6257 22.7326 
11543 0 3 32.5793 10.8188 1.04923 
13739 0 3 30.4601 7.07969 7.58779 
20830 0 3 30.9017 9.43658 9.52344 
24463 0 3 28.4927 6.27698 10.7293 
23405 0 3 27.9756 11.4151 11.1436 
7122 0 3 28.805 10.527 11.9771 
20953 0 3 31.0414 11.3729 13.057 
16699 0 3 30.8992 7.56142 13.7737 
12255 0 3 33.2697 6.15344 14.023 
6071 0 3 30.4353 11.2003 14.6262 
26473 0 3 30.8604 7.76765 16.8183 
4328 0 3 29.6618 9.12781 15.5601 
25901 0 3 32.1171 9.05881 16.3641 
18379 0 3 32.7368 11.4632 15.2233 
24281 0 3 31.583 10.3217 17.6105 
22590 0 3 32.0703 7.53003 19.7414 
13389 0 3 32.9687 11.4201 20.1062 
21472 0 3 29.5479 7.23021 24.2548 
12088 0 3 28.5046 7.87302 29.7337 
26572 0 3 30.0302 8.87405 28.5465 
7821 0 3 30.3901 10.0294 30.487 
22991 0 3 31.5436 7.03521 32.843 
23049 0 3 33.1165 12.958 1.83726 
19511 0 3 29.4043 15.8423 0.634256 
5925 0 3 33.1414 13.2761 3.75613 
17928 0 3 27.9589 15.7179 7.65449 
4500 0 3 33.2368 15.417 6.54607 
22124 0 3 29.642 14.624 8.42891 
2672 0 3 28.1613 12.7483 10.4257 
8305 0 3 29.0627 12.2154 10.8289 
14423 0 3 31.5027 12.2959 10.146 
19407 0 3 28.7061 14.4702 10.4512 
7535 0 3 28.1903 15.6948 11.0306 
26937 0 3 29.3905 13.5722 12.2583 
1135 0 3 31.4405 12.9524 14.9209 
8415 0 3 32.2955 14.9198 13.8898 
21807 0 3 30.342 15.7863 14.9368 
8462 0 3 28.8646 12.6195 17.9162 
25551 0 3 28.2149 14.0878 17.7492 
24192 0 3 33.2185 14.1103 18.0414 
8141 0 3 29.3499 16.6629 18.5208 
6301 0 3 28.4668 15.9274 18.7607 
18998 0 3 29.0761 11.8727 18.9208 
24528 0 3 31.4372 12.1911 19.4778 
14268 0 3 32.5588 14.3419 19.2108 
7581 0 3 28.5936 16.7926 21.2194 
9025 0 3 30.9911 15.4961 22.2225 
20699 0 3 33.2711 15.3353 20.7784 
5760 0 3 31.5136 14.317 25.8571 
15303 0 3 32.3514 15.0087 25.6847 
13986 0 3 29.4872 15.3754 25.0685 
16912 0 3 31.2777 14.2301 27.8906 
21683 0 3 28.973 15.8549 27.0483 
24763 0 3 33.1736 16.7561 27.5047 
549 0 3 29.4751 13.164 28.5363 
19541 0 3 31.1382 16.0928 29.4333 
10422 0 3 33.3346 12.5616 30.9471 
18636 0 3 30.4898 15.4956 32.4537 
24870 0 3 31.1664 17.9678 1.3273 
1992 0 3 28.569 19.612 0.760152 
227 0 3 33.3441 18.9774 0.667327 
9811 0 3 33.1572 22.1599 1.5447 
16953 0 3 32.2929 21.6479 1.23244 
4644 0 3 28.9557 19.8044 2.45643 
3349 0 3 28.8425 22.2832 2.45606 
20357 0 3 32.9942 18.6679 5.6366 
2202 0 3 28.9525 21.9776 5.14716 
558 0 3 32.8604 17.0142 8.1579 
4180 0 3 30.1367 17.2977 11.5417 
7990 0 3 27.9509 20.4931 11.8516 
4582 0 3 30.6607 21.2491 13.8288 
16643 0 3 30.5444 18.5722 16.2619 
22415 0 3 32.5115 18.7106 16.7339 
23324 0 3 31.2091 19.6835 15.3708 
15590 0 3 33.2595 19.7483 15.218 
8341 0 3 29.6328 18.6933 18.1505 
7702 0 3 33.086 22.3812 18.1291 
20903 0 3 31.5235 19.0274 19.2096 
3671 0 3 28.7486 21.6136 19.4457 
23540 0 3 28.9252 19.0252 21.4568 
1937 0 3 32.5409 19.719 22.144 
12684 0 3 30.7527 21.3002 21.2762 
5188 0 3 30.249 17.8936 23.1533 
9318 0 3 31.2737 17.3744 23.7048 
12835 0 3 30.1419 17.4677 24.134 
4221 0 3 28.7425 20.6184 26.0636 
1244 0 3 30.2422 19.9652 24.4838 
25947 0 3 32.9269 19.742 27.3005 
17978 0 3 30.9039 18.6205 29.0282 
8447 0 3 31.2018 19.5612 28.2656 
26440 0 3 30.8503 21.4634 29.5711 
4085 0 3 29.2169 18.192 30.1972 
15912 0 3 32.3343 20.835 30.6077 
16524 0 3 32.3133 17.7818 32.3582 
24660 0 3 28.1319 19.4773 31.7099 
20250 0 3 32.572 22.6638 0.917081 
2899 0 3 31.1365 26.5779 2.38774 
6792 0 3 28.9482 26.4354 3.05675 
2392 0 3 28.5757 22.9655 7.72765 
5567 0 3 32.8461 22.489 6.11383 
3592 0 3 33.3042 24.9114 7.17171 
5431 0 3 29.1019 27.5754 6.31993 
13735 0 3 32.7864 27.7083 6.49107 
14968 0 3 31.775 25.4171 8.31802 
6409 0 3 32.9078 26.6227 8.00754 
26978 0 3 33.3228 27.801 10.5914 
21091 0 3 31.7743 27.6038 14.6289 
555 0 3 29.2813 25.7665 16.5029 
22391 0 3 30.5409 24.3644 19.9122 
6810 0 3 32.4302 25.8256 19.3076 
20372 0 3 32.6853 26.8424 20.0699 
7558 0 3 29.5839 23.5505 21.5254 
18319 0 3 31.0856 25.1614 21.7528 
20072 0 3 30.9219 26.1773 22.3547 
10798 0 3 28.7306 24.8957 22.8628 
18556 0 3 32.1615 24.5596 24.246 
11932 0 3 32.5324 25.3256 23.486 
13237 0 3 31.9335 27.5043 22.9267 
16774 0 3 30.5515 22.68 24.7271 
25942 0 3 30.1767 24.4609 24.4305 
23675 0 3 28.9904 26.4249 25.166 
26393 0 3 30.9194 24.615 27.3949 
23782 0 3 31.4284 22.6156 29.1396 
19395 0 3 29.9828 27.0319 29.7321 
23186 0 3 32.3567 26.9242 28.8602 
16924 0 3 28.0715 22.7724 31.0964 
1809 0 3 29.2026 23.3159 31.1162 
19350 0 3 32.796 22.7768 32.1685 