LAMMPS (3 Mar 2020)
OMP_NUM_THREADS environment is not set. Defaulting to 1 thread. (src/comm.cpp:94)
  using 1 OpenMP thread(s) per MPI task
Reading restart file ...
  restart file = 3 Mar 2020, LAMMPS = 3 Mar 2020
  restoring atom style full from restart
  orthogonal box = (0.591533 0.591533 0.591533) to (33.4085 33.4085 33.4085)
  6 by 6 by 6 MPI processor grid
  restoring pair style hybrid/overlay from restart
  restoring bond style fene from restart
  28900 atoms
  8700 bonds
Finding 1-2 1-3 1-4 neighbors ...
  special bond factors lj:   0          1          1         
  special bond factors coul: 0          1          1         
  2 = max # of 1-2 neighbors
  6 = max # of special neighbors
  special bonds CPU = 2.45289 secs
  read_restart CPU = 2.59715 secs
Resetting global fix info from restart file:
  fix style: nvt, fix ID: pt
100 rigid bodies with 1900 atoms
Resetting global fix info from restart file:
  fix style: rigid/nvt, fix ID: ri
System init for write_data ...
PPPM initialization ...
  using 12-bit tables for long-range coulomb (src/kspace.cpp:332)
  G vector (1/distance) = 1.14187
  grid = 90 90 90
  stencil order = 5
  estimated absolute RMS force accuracy = 8.56813e-05
  estimated relative force accuracy = 8.56813e-05
  using double precision FFTW3
  3d grid and FFT values/proc = 8000 3600
All restart file global fix info was re-assigned
Unused restart file peratom fix info:
  fix style: STORE, fix ID: par_COMPUTE_STORE
WARNING: Neighbor exclusions used with KSpace solver may give inconsistent Coulombic energies (src/neighbor.cpp:486)
Neighbor list info ...
  update every 1 steps, delay 0 steps, check yes
  max neighbors/atom: 2000, page size: 100000
  master list distance cutoff = 2.8
  ghost atom cutoff = 2.8
  binsize = 1.4, bins = 24 24 24
  2 neighbor lists, perpetual/occasional/extra = 2 0 0
  (1) pair lj/cut, perpetual
      attributes: half, newton on
      pair build: half/bin/newton
      stencil: half/bin/3d/newton
      bin: standard
  (2) pair coul/long, perpetual, skip from (1)
      attributes: half, newton on
      pair build: skip
      stencil: none
      bin: none
PPPM initialization ...
  using 12-bit tables for long-range coulomb (src/kspace.cpp:332)
  G vector (1/distance) = 1.14187
  grid = 90 90 90
  stencil order = 5
  estimated absolute RMS force accuracy = 8.56813e-05
  estimated relative force accuracy = 8.56813e-05
  using double precision FFTW3
  3d grid and FFT values/proc = 8000 3600
WARNING: Neighbor exclusions used with KSpace solver may give inconsistent Coulombic energies (src/neighbor.cpp:486)
Neighbor list info ...
  update every 1 steps, delay 0 steps, check yes
  max neighbors/atom: 2000, page size: 100000
  master list distance cutoff = 2.8
  ghost atom cutoff = 2.8
  binsize = 1.4, bins = 24 24 24
  2 neighbor lists, perpetual/occasional/extra = 2 0 0
  (1) pair lj/cut, perpetual
      attributes: half, newton on
      pair build: half/bin/newton
      stencil: half/bin/3d/newton
      bin: standard
  (2) pair coul/long, perpetual, skip from (1)
      attributes: half, newton on
      pair build: skip
      stencil: none
      bin: none
Setting up Verlet run ...
  Unit style    : lj
  Current step  : 12000000
  Time step     : 0.005
Per MPI rank memory allocation (min/avg/max) = 10.14 | 10.19 | 10.3 Mbytes
Step Temp Press Volume 
12000000    0.8087499  -0.13325793    35342.233 
12010000   0.80655487  -0.21378569    35342.233 
12020000   0.80039568  -0.19500577    35342.233 
12030000   0.79847718  -0.22228877    35342.233 
12040000   0.79879503   -0.1598146    35342.233 
12050000   0.79911051  -0.24419343    35342.233 
12060000   0.79465027  -0.24438268    35342.233 
12070000   0.80367171  -0.23060796    35342.233 
12080000   0.80199523  -0.16011888    35342.233 
12090000   0.80659461  -0.16931687    35342.233 
12100000   0.79159607  -0.25093701    35342.233 
12110000   0.80076756  -0.25491197    35342.233 
12120000   0.80663639  -0.25732254    35342.233 
12130000   0.79787621   -0.1826408    35342.233 
12140000   0.79749742  -0.26055241    35342.233 
12150000   0.79958819  -0.22829819    35342.233 
12160000   0.80395395  -0.27125577    35342.233 
12170000    0.7994294  -0.21381929    35342.233 
12180000   0.79841593  -0.27356895    35342.233 
12190000   0.80438465  -0.24194821    35342.233 
12200000   0.80455723  -0.23714887    35342.233 
12210000   0.80199863   -0.1852659    35342.233 
12220000   0.79828741  -0.20351451    35342.233 
12230000    0.8030278  -0.17794423    35342.233 
12240000   0.80535301   -0.2418031    35342.233 
12250000   0.80081236   -0.2036096    35342.233 
12260000    0.8024374  -0.19378337    35342.233 
12270000   0.79791331  -0.21678174    35342.233 
12280000   0.79606101  -0.24293441    35342.233 
12290000   0.80024871  -0.25953849    35342.233 
12300000   0.79620489  -0.16497781    35342.233 
12310000     0.802426  -0.23946488    35342.233 
12320000   0.79729035  -0.18678448    35342.233 
12330000   0.79894967  -0.26166659    35342.233 
12340000   0.79591987  -0.24827803    35342.233 
12350000   0.79687606   -0.2366921    35342.233 
12360000   0.80361852  -0.23958736    35342.233 
12370000     0.795071  -0.22502978    35342.233 
12380000   0.79863683  -0.23860296    35342.233 
12390000   0.79673544  -0.28359095    35342.233 
12400000   0.79586852  -0.17637875    35342.233 
12410000   0.80682887  -0.26840764    35342.233 
12420000   0.79614175  -0.28186997    35342.233 
12430000   0.80744578   -0.2052588    35342.233 
12440000   0.79504408  -0.16941113    35342.233 
12450000   0.80268527  -0.19822581    35342.233 
12460000   0.79908017  -0.24680501    35342.233 
12470000   0.80081689  -0.18608448    35342.233 
12480000   0.79573115  -0.24531723    35342.233 
12490000   0.79220004  -0.20645438    35342.233 
12500000   0.79773899  -0.21834578    35342.233 
12510000   0.80049797  -0.27471669    35342.233 
12520000    0.7970411  -0.26036602    35342.233 
12530000    0.7941189  -0.25378789    35342.233 
12540000   0.79739103  -0.22172841    35342.233 
12550000   0.79586355  -0.26482325    35342.233 
12560000    0.7902663  -0.22841791    35342.233 
12570000   0.80254082  -0.21393691    35342.233 
12580000   0.79852867  -0.25296888    35342.233 
12590000   0.80286236  -0.27405798    35342.233 
12600000   0.80161704  -0.22998757    35342.233 
12610000   0.80429771  -0.18480138    35342.233 
12620000   0.79237188  -0.18887318    35342.233 
12630000   0.79702449  -0.24949979    35342.233 
12640000   0.80568068  -0.22970689    35342.233 
12650000   0.79733328  -0.26713757    35342.233 
12660000   0.79584141  -0.20939244    35342.233 
12670000   0.79004575  -0.22457865    35342.233 
12680000   0.80118507  -0.26768709    35342.233 
12690000   0.79365782   -0.2161045    35342.233 
12700000    0.8003925  -0.21713289    35342.233 
12710000   0.79461051  -0.22195485    35342.233 
12720000   0.78818904  -0.25386409    35342.233 
12730000   0.80741307  -0.21866321    35342.233 
12740000   0.79001271  -0.23551817    35342.233 
12750000   0.79713414  -0.23085423    35342.233 
12760000   0.80042733  -0.28075065    35342.233 
12770000   0.79930699  -0.23212534    35342.233 
12780000   0.80350607  -0.25680823    35342.233 
12790000   0.79859371  -0.29174537    35342.233 
12800000   0.79940965  -0.27185305    35342.233 
12810000   0.79767419  -0.27939271    35342.233 
12820000   0.79699719  -0.22853718    35342.233 
12830000   0.79321707  -0.14227607    35342.233 
12840000   0.80282731  -0.25204928    35342.233 
12850000   0.80635579  -0.24327175    35342.233 
12860000   0.80125145  -0.22072648    35342.233 
12870000    0.7979375  -0.28172116    35342.233 
12880000   0.79700231  -0.20137187    35342.233 
12890000   0.79679934  -0.21154591    35342.233 
12900000   0.80049272  -0.24440222    35342.233 
12910000    0.8037582  -0.21267984    35342.233 
12920000    0.8008845  -0.25651015    35342.233 
12930000   0.80977671  -0.22659474    35342.233 
12940000   0.80122878   -0.2285942    35342.233 
12950000   0.80438711   -0.1757078    35342.233 
12960000   0.79932688  -0.24009336    35342.233 
12970000   0.80291063  -0.24812044    35342.233 
12980000   0.79977608  -0.28192634    35342.233 
12990000   0.80554563  -0.17234624    35342.233 
13000000   0.79883416  -0.24879053    35342.233 
Loop time of 9007.35 on 216 procs for 1000000 steps with 28900 atoms

Performance: 47960.827 tau/day, 111.020 timesteps/s
99.9% CPU use with 216 MPI tasks x 1 OpenMP threads

MPI task timing breakdown:
Section |  min time  |  avg time  |  max time  |%varavg| %total
---------------------------------------------------------------
Pair    | 77.619     | 119.99     | 171.8      | 167.7 |  1.33
Bond    | 0.70168    | 1.9603     | 3.1363     |  30.8 |  0.02
Kspace  | 7822.7     | 7995.2     | 8088.9     |  69.3 | 88.76
Neigh   | 126.53     | 131.18     | 138.04     |  22.7 |  1.46
Comm    | 223.25     | 321.68     | 480.81     | 319.6 |  3.57
Output  | 0.0099509  | 0.012713   | 0.023714   |   1.1 |  0.00
Modify  | 294.81     | 346.34     | 393.77     | 118.5 |  3.85
Other   |            | 91.03      |            |       |  1.01

Nlocal:    133.796 ave 198 max 94 min
Histogram: 3 27 53 48 32 26 14 10 2 1
Nghost:    975.514 ave 1164 max 804 min
Histogram: 4 16 26 32 39 39 35 12 9 4
Neighs:    5020.68 ave 9584 max 2762 min
Histogram: 10 51 56 30 29 15 16 5 2 2

Total # of neighbors = 1084467
Ave neighs/atom = 37.5248
Ave special neighs/atom = 0.602076
Neighbor list builds = 134448
Dangerous builds = 0
PPPM initialization ...
  using 12-bit tables for long-range coulomb (src/kspace.cpp:332)
  G vector (1/distance) = 1.14187
  grid = 90 90 90
  stencil order = 5
  estimated absolute RMS force accuracy = 8.56813e-05
  estimated relative force accuracy = 8.56813e-05
  using double precision FFTW3
  3d grid and FFT values/proc = 8000 3600
WARNING: Neighbor exclusions used with KSpace solver may give inconsistent Coulombic energies (src/neighbor.cpp:486)
Neighbor list info ...
  update every 1 steps, delay 0 steps, check yes
  max neighbors/atom: 2000, page size: 100000
  master list distance cutoff = 2.8
  ghost atom cutoff = 2.8
  binsize = 1.4, bins = 24 24 24
  12 neighbor lists, perpetual/occasional/extra = 2 10 0
  (1) pair lj/cut, perpetual
      attributes: half, newton on
      pair build: half/bin/newton
      stencil: half/bin/3d/newton
      bin: standard
  (2) pair coul/long, perpetual, skip from (1)
      attributes: half, newton on
      pair build: skip
      stencil: none
      bin: none
  (3) compute rdf, occasional, copy from (1)
      attributes: half, newton on
      pair build: copy
      stencil: none
      bin: none
  (4) compute rdf, occasional, copy from (1)
      attributes: half, newton on
      pair build: copy
      stencil: none
      bin: none
  (5) compute rdf, occasional, copy from (1)
      attributes: half, newton on
      pair build: copy
      stencil: none
      bin: none
  (6) compute rdf, occasional, copy from (1)
      attributes: half, newton on
      pair build: copy
      stencil: none
      bin: none
  (7) compute rdf, occasional, copy from (1)
      attributes: half, newton on
      pair build: copy
      stencil: none
      bin: none
  (8) compute rdf, occasional, copy from (1)
      attributes: half, newton on
      pair build: copy
      stencil: none
      bin: none
  (9) compute rdf, occasional, copy from (1)
      attributes: half, newton on
      pair build: copy
      stencil: none
      bin: none
  (10) compute rdf, occasional, copy from (1)
      attributes: half, newton on
      pair build: copy
      stencil: none
      bin: none
  (11) compute rdf, occasional, copy from (1)
      attributes: half, newton on
      pair build: copy
      stencil: none
      bin: none
  (12) compute rdf, occasional, copy from (1)
      attributes: half, newton on
      pair build: copy
      stencil: none
      bin: none
Setting up Verlet run ...
  Unit style    : lj
  Current step  : 0
  Time step     : 0.005
WARNING: One or more chunks do not contain all atoms in molecule (src/compute_chunk_atom.cpp:1163)
Per MPI rank memory allocation (min/avg/max) = 17.82 | 19.3 | 19.85 Mbytes
Step Temp Press PotEng KinEng E_pair E_bond TotEng 
       0   0.79883416   0.15265111   0.40922273    1.1277244   -5.7942704    6.2034932    1.5369471 
   10000   0.79743273  -0.22220029   0.40514049     1.125746   -5.7949297    6.2000702    1.5308865 
   20000   0.79907292  -0.26659166   0.41288544    1.1280615   -5.7890959    6.2019813    1.5409469 
   30000   0.80277042  -0.24800054   0.41560683    1.1332813   -5.7907902     6.206397    1.5488881 
   40000    0.7964557  -0.26253044   0.39838232    1.1243667   -5.8025872    6.2009695     1.522749 
   50000   0.79434953  -0.19332505   0.41377118    1.1213934   -5.7904685    6.2042397    1.5351646 
   60000   0.80512248  -0.18246212   0.41214775    1.1366017   -5.7925152    6.2046629    1.5487495 
   70000   0.80384954  -0.25624365   0.40799885    1.1348047   -5.7943861    6.2023849    1.5428035 
   80000   0.79627893  -0.19405168    0.4082808    1.1241172   -5.7934974    6.2017782     1.532398 
   90000   0.79695234  -0.27122344   0.40789363    1.1250678   -5.7986714     6.206565    1.5329615 
  100000    0.7986833   -0.1981139    0.4189073    1.1275114   -5.7861966    6.2051039    1.5464187 
  110000   0.79599271  -0.26623985   0.41391519    1.1237131   -5.7927057    6.2066209    1.5376283 
  120000   0.79421188  -0.21711613   0.41784116    1.1211991   -5.7857398     6.203581    1.5390402 
  130000   0.79498572  -0.24383061   0.40899051    1.1222915   -5.7950545     6.204045     1.531282 
  140000   0.80173299  -0.21574554   0.41309911    1.1318167    -5.792438    6.2055372    1.5449158 
  150000   0.79416379  -0.23308767    0.4116446    1.1211312   -5.7930118    6.2046564    1.5327758 
  160000   0.80002318  -0.21851405   0.40735904     1.129403   -5.7971493    6.2045083     1.536762 
  170000    0.7988476   -0.1880803   0.41379984    1.1277434   -5.7892039    6.2030037    1.5415432 
  180000   0.80268339  -0.24691013   0.41142162    1.1331584   -5.7904343    6.2018559      1.54458 
  190000   0.79745829  -0.17303567   0.41291583    1.1257821   -5.7916586    6.2045744    1.5386979 
  200000   0.80322799  -0.27275925   0.41271549    1.1339272   -5.7880456    6.2007611    1.5466427 
  210000   0.79621871  -0.22275831   0.41340641    1.1240322   -5.7883116     6.201718    1.5374386 
  220000   0.80108135  -0.27381976   0.41076264    1.1308968   -5.7903369    6.2010995    1.5416594 
  230000    0.8091486   -0.1920472   0.41084813    1.1422854   -5.7935478     6.204396    1.5531336 
  240000   0.79931803  -0.25512666   0.40893958    1.1284075   -5.7928614     6.201801    1.5373471 
  250000   0.80770277  -0.25452971   0.41361468    1.1402443   -5.7905788    6.2041935     1.553859 
  260000    0.7977153  -0.30360307   0.40328917    1.1261449   -5.7968473    6.2001365    1.5294341 
  270000   0.79836051  -0.21899115   0.40810595    1.1270558   -5.7981441    6.2062501    1.5351617 
  280000   0.80170737  -0.22073109    0.4059853    1.1317806   -5.7931694    6.1991547    1.5377659 
  290000   0.80110493   -0.2059158   0.40891516    1.1309301   -5.7919277    6.2008429    1.5398452 
  300000   0.79865152  -0.22027697   0.41126319    1.1274666   -5.7951323    6.2063955    1.5387298 
  310000   0.80369803  -0.19535354   0.40328661    1.1345908   -5.7987607    6.2020473    1.5378774 
  320000   0.80237505  -0.22761102   0.41427827    1.1327231   -5.7880002    6.2022785    1.5470014 
  330000   0.80618439  -0.19514595   0.41242375    1.1381008   -5.7917712     6.204195    1.5505246 
  340000   0.80069466  -0.21654438   0.41372408    1.1303509   -5.7935935    6.2073175     1.544075 
  350000   0.80095556  -0.26344869   0.41188081    1.1307192   -5.7929362     6.204817       1.5426 
  360000   0.80139489  -0.26378095   0.40055758    1.1313394    -5.798855    6.1994126     1.531897 
  370000   0.79725175  -0.27175104   0.40602313    1.1254905   -5.7970688    6.2030919    1.5315136 
  380000    0.8054619  -0.28451434   0.40967351    1.1370809   -5.7941587    6.2038322    1.5467544 
  390000   0.80136024  -0.27682738   0.40086293    1.1312905   -5.8021989    6.2030618    1.5321534 
  400000   0.80550789  -0.15603605   0.41415575    1.1371458   -5.7901067    6.2042625    1.5513015 
  410000   0.79753006  -0.23942988   0.41240275    1.1258834   -5.7920829    6.2044856    1.5382861 
  420000   0.80290018  -0.22249304   0.41059208    1.1334645    -5.792811    6.2034031    1.5440565 
  430000    0.8118636   -0.2145233   0.40734612    1.1461182   -5.7970736    6.2044197    1.5534644 
  440000   0.80424537  -0.12828194   0.41235538    1.1353635   -5.7879444    6.2002998    1.5477189 
  450000   0.79882291   -0.2031959   0.40282305    1.1277085   -5.7969733    6.1997964    1.5305316 
  460000   0.80132589  -0.19743524   0.40684903     1.131242   -5.7961591    6.2030081     1.538091 
  470000   0.80541581  -0.20543885   0.41031356    1.1370158   -5.7926072    6.2029208    1.5473294 
  480000   0.79549656  -0.27243671    0.4014377    1.1230127   -5.8039338    6.2053715    1.5244504 
  490000   0.79797419  -0.25109203    0.3993152    1.1265104   -5.8040159    6.2033311    1.5258256 
  500000   0.80508836  -0.22384837   0.40591928    1.1365535   -5.7983435    6.2042628    1.5424728 
  510000   0.79973193   -0.2173422   0.40364824    1.1289918   -5.8006698     6.204318    1.5326401 
  520000   0.79584843  -0.21578788   0.40533377    1.1235094   -5.7986665    6.2040003    1.5288432 
  530000   0.79922442  -0.20546725   0.40838908    1.1282753   -5.7942392    6.2026283    1.5366644 
  540000   0.80080672  -0.23330628   0.41343495    1.1305091   -5.7886692    6.2021042    1.5439441 
  550000   0.79542485   -0.2811842   0.40248696    1.1229114   -5.8036871    6.2061741    1.5253984 
  560000   0.79935718  -0.22517261   0.40455236    1.1284628   -5.7971894    6.2017417    1.5330151 
  570000   0.79808119  -0.21742936   0.40396073    1.1266614   -5.7985059    6.2024666    1.5306222 
  580000   0.80068199  -0.22012505   0.41142822     1.130333   -5.7950265    6.2064548    1.5417612 
  590000   0.79819869  -0.23010781   0.40622504    1.1268273   -5.7954294    6.2016544    1.5330524 
  600000   0.80299861  -0.26745523   0.40630213    1.1336034   -5.7987506    6.2050527    1.5399056 
  610000    0.8032806  -0.16858058   0.41185581    1.1340015   -5.7931689    6.2050247    1.5458573 
  620000   0.79550995  -0.17920761   0.40791615    1.1230316   -5.7982457    6.2061618    1.5309477 
  630000   0.80503314   -0.2222881   0.40773853    1.1364756   -5.7981527    6.2058913    1.5442141 
  640000   0.80399553  -0.25139542   0.40337639    1.1350108   -5.7999217    6.2032981    1.5383872 
  650000    0.8006246  -0.26376767   0.40441577     1.130252   -5.7965124    6.2009281    1.5346678 
  660000   0.79835352  -0.21158792   0.40936475    1.1270459   -5.7943114    6.2036761    1.5364106 
  670000   0.79260816  -0.22881477   0.40532939    1.1189351   -5.7971154    6.2024448    1.5242645 
  680000   0.79222188  -0.24369645   0.40426643    1.1183898   -5.7960157    6.2002822    1.5226562 
  690000   0.79643364  -0.24901378   0.41372214    1.1243356   -5.7872332    6.2009554    1.5380577 
  700000   0.79953953  -0.25002367   0.41748774    1.1287202   -5.7879243    6.2054121    1.5462079 
  710000   0.79724546  -0.17940171   0.41847558    1.1254816   -5.7865653    6.2050408    1.5439572 
  720000   0.79759129  -0.27246642   0.40115478    1.1259698   -5.8019174    6.2030722    1.5271246 
  730000   0.79999546   -0.2580659   0.41190718    1.1293638   -5.7931856    6.2050928     1.541271 
  740000   0.80120295  -0.22593803    0.4110658    1.1310685   -5.7945819    6.2056476    1.5421343 
  750000   0.79807371  -0.19887149   0.40409889    1.1266509   -5.7981803    6.2022792    1.5307498 
  760000   0.78875329  -0.21558559   0.41347842    1.1134931   -5.7920573    6.2055357    1.5269715 
  770000   0.80431409  -0.21692838   0.40639729    1.1354605   -5.7988753    6.2052726    1.5418578 
  780000   0.79212178  -0.23542063   0.39883327    1.1182485   -5.8035635    6.2023967    1.5170817 
  790000   0.80082234  -0.25916165   0.41081617    1.1305312   -5.7944754    6.2052916    1.5413473 
  800000   0.79900278  -0.21961931   0.41412538    1.1279625   -5.7900488    6.2041742    1.5420878 
  810000   0.80051238  -0.25979772   0.40316074    1.1300936   -5.7975459    6.2007067    1.5332543 
  820000   0.80022893  -0.16199372   0.41692187    1.1296934   -5.7849592    6.2018811    1.5466153 
  830000   0.80145312   -0.1620897   0.41757926    1.1314216   -5.7861421    6.2037213    1.5490009 
  840000   0.79761022  -0.28203658   0.40285922    1.1259966   -5.8006485    6.2035077    1.5288558 
  850000   0.80414107  -0.24934105   0.40248623    1.1352162   -5.8001569    6.2026432    1.5377025 
  860000   0.80317452  -0.20686297     0.411318    1.1338517   -5.7902521    6.2015701    1.5451697 
  870000   0.80115899  -0.23958315    0.4128434    1.1310064   -5.7940159    6.2068593    1.5438498 
  880000   0.79846177  -0.27159763   0.40135037    1.1271987   -5.8022093    6.2035597    1.5285491 
  890000   0.80206842   -0.1851375   0.39785675    1.1322903   -5.8033567    6.2012134     1.530147 
  900000   0.80144086  -0.24509761   0.41356192    1.1314043    -5.793979     6.207541    1.5449662 
  910000   0.80562959  -0.21746769   0.40310989    1.1373176   -5.7989756    6.2020855    1.5404275 
  920000   0.80288738   -0.2180688   0.41007272    1.1334464   -5.7914079    6.2014806    1.5435191 
  930000   0.80681555  -0.22496906   0.40676824    1.1389918   -5.7971129    6.2038811    1.5457601 
  940000   0.80074449  -0.27236267   0.40413921    1.1304212   -5.7986499    6.2027891    1.5345604 
  950000    0.7998303    -0.222745   0.41475937    1.1291307   -5.7877154    6.2024748      1.54389 
  960000   0.80369504   -0.2479877   0.41316015    1.1345866   -5.7932277    6.2063878    1.5477467 
  970000     0.806066  -0.23373661   0.41417098    1.1379337    -5.786542     6.200713    1.5521047 
  980000   0.79356055  -0.24568662   0.41065792    1.1202796    -5.793273    6.2039309    1.5309375 
  990000   0.79667875  -0.22520814   0.41683224    1.1246816   -5.7885468    6.2053791    1.5415138 
 1000000   0.80374736  -0.14954434   0.41397325    1.1346604   -5.7899037    6.2038769    1.5486337 
 1010000   0.80247987   -0.3046327   0.41508216    1.1328711   -5.7900183    6.2051004    1.5479533 
 1020000   0.80281171  -0.22683212   0.41589973    1.1333396   -5.7883527    6.2042525    1.5492393 
 1030000    0.7973978  -0.30012475   0.40660144    1.1256967   -5.7971424    6.2037438    1.5322981 
 1040000   0.80369443  -0.22488455   0.40967424    1.1345857   -5.7933369    6.2030111      1.54426 
 1050000   0.79983442  -0.23010592   0.41503879    1.1291365   -5.7928259    6.2078646    1.5441753 
 1060000   0.79728948   -0.2421275   0.41283288    1.1255438   -5.7930797    6.2059126    1.5383766 
 1070000   0.80910501   -0.2295422    0.4016098    1.1422239   -5.8035498    6.2051596    1.5438337 
 1080000   0.79978387  -0.23249656   0.41422131    1.1290651    -5.787287    6.2015084    1.5432864 
 1090000   0.79855675  -0.27573868   0.40861864    1.1273328   -5.7978832    6.2065018    1.5359514 
 1100000    0.7970035  -0.24025113   0.41172728      1.12514   -5.7925079    6.2042352    1.5368673 
 1110000    0.8071723  -0.25383565   0.41449976    1.1394955   -5.7890882     6.203588    1.5539952 
 1120000   0.80415041  -0.24787177   0.41054215    1.1352294   -5.7938405    6.2043826    1.5457716 
 1130000   0.79908438  -0.24174521   0.41651363    1.1280776   -5.7888605    6.2053741    1.5445913 
 1140000   0.79897782  -0.24952162   0.40782778    1.1279272   -5.7994635    6.2072912     1.535755 
 1150000   0.80196178  -0.12586742    0.4168813    1.1321397   -5.7873646    6.2042459     1.549021 
 1160000   0.79915982   -0.2870705   0.40626274    1.1281841   -5.7965333     6.202796    1.5344469 
 1170000   0.79584364  -0.22379118   0.41350654    1.1235027     -5.79189    6.2053965    1.5370092 
 1180000   0.79777613  -0.25612442    0.4000628    1.1262308   -5.8025138    6.2025766    1.5262936 
 1190000   0.79816283  -0.24131182   0.41227574    1.1267767   -5.7920072    6.2042829    1.5390524 
 1200000   0.79929713  -0.21569902    0.4047322     1.128378   -5.7965819    6.2013141    1.5331102 
 1210000   0.79243524  -0.27202822   0.40007899     1.118691   -5.8019553    6.2020342      1.51877 
 1220000   0.80345601  -0.31037043   0.39768698    1.1342491   -5.8021149    6.1998018    1.5319361 
 1230000    0.8019354  -0.16871838   0.41076184    1.1321025   -5.7893209    6.2000827    1.5428643 
 1240000   0.80029088  -0.23186369   0.41638062    1.1297809   -5.7876353     6.204016    1.5461615 
 1250000   0.79980404  -0.20012511   0.40072508    1.1290936    -5.805097    6.2058221    1.5298187 
 1260000   0.79660315  -0.29424673   0.40688535    1.1245749   -5.7961718    6.2030571    1.5314602 
 1270000   0.79944972  -0.23277336   0.40862466    1.1285934   -5.7978936    6.2065183    1.5372181 
 1280000   0.79888004  -0.27196845   0.40781917    1.1277892   -5.7963745    6.2041937    1.5356083 
 1290000   0.80652932  -0.25907638   0.40532586    1.1385878    -5.795241    6.2005669    1.5439136 
 1300000   0.79943738  -0.16121215   0.40700244     1.128576   -5.7966342    6.2036367    1.5355784 
 1310000   0.80272725    -0.190095   0.40959369    1.1332203   -5.7930797    6.2026734     1.542814 
 1320000   0.80022967  -0.20264696   0.40561479    1.1296945   -5.7975776    6.2031924    1.5353093 
 1330000   0.80389642   -0.2146333    0.4017565    1.1348709   -5.7987695     6.200526    1.5366274 
 1340000   0.80461919   -0.1932249   0.40418826    1.1358912   -5.7997605    6.2039488    1.5400795 
 1350000   0.79684837  -0.14424912   0.40883028     1.124921   -5.7937569    6.2025872    1.5337513 
 1360000   0.79653729  -0.18917057   0.41464816    1.1244819   -5.7892907    6.2039389    1.5391301 
 1370000   0.80006523   -0.2447375   0.40208745    1.1294623   -5.7986031    6.2006906    1.5315498 
 1380000    0.8013639  -0.24828234   0.42013436    1.1312957   -5.7872888    6.2074232      1.55143 
 1390000   0.80435326  -0.26526955   0.40809792    1.1355158    -5.799005    6.2071029    1.5436137 
 1400000   0.80117115   -0.1854378   0.41996962    1.1310236   -5.7839551    6.2039247    1.5509932 
 1410000     0.797779  -0.26304675   0.40174536    1.1262348   -5.8000772    6.2018226    1.5279802 
 1420000   0.80026473  -0.24900739   0.41067539     1.129744   -5.7953703    6.2060457    1.5404194 
 1430000   0.80075432   -0.2488919   0.39918383    1.1304351   -5.8043946    6.2035784     1.529619 
 1440000   0.79902261  -0.18467666   0.40804064    1.1279904    -5.796793    6.2048337    1.5360311 
 1450000   0.79664224  -0.27294348   0.40661641      1.12463   -5.7977226     6.204339    1.5312465 
 1460000   0.79207415  -0.26904077   0.40744113    1.1181812   -5.7938071    6.2012483    1.5256223 
 1470000   0.80165798  -0.30599222   0.40045545    1.1317108   -5.8020809    6.2025363    1.5321663 
 1480000   0.80187113  -0.24877957   0.40433367    1.1320117   -5.7973412    6.2016748    1.5363454 
 1490000   0.79479565  -0.25565494   0.40964978    1.1220232    -5.796221    6.2058707     1.531673 
 1500000   0.80342774  -0.19096334   0.41592507    1.1342092   -5.7847303    6.2006554    1.5501343 
 1510000    0.7951274   -0.2271603   0.39931081    1.1224915   -5.8028455    6.2021564    1.5218023 
 1520000   0.80031786  -0.25904662   0.40206344     1.129819   -5.8019135     6.203977    1.5318824 
 1530000   0.80429536  -0.16534183   0.41048008    1.1354341   -5.7937734    6.2042535    1.5459141 
 1540000   0.80294866  -0.23304918   0.40925348    1.1335329   -5.7926042    6.2018577    1.5427864 
 1550000   0.79788636  -0.31153042   0.40459881    1.1263864   -5.7977839    6.2023827    1.5309852 
 1560000   0.79621544  -0.20743235   0.40584934    1.1240275   -5.7972715    6.2031208    1.5298769 
 1570000   0.79713296  -0.21230005   0.41132912    1.1253228   -5.7952279    6.2065571    1.5366519 
 1580000   0.79395004  -0.23759585   0.40376964    1.1208294   -5.8003067    6.2040764    1.5245991 
 1590000   0.79616969  -0.27325244   0.40095275    1.1239629   -5.8015076    6.2024604    1.5249157 
 1600000   0.80649922  -0.31424273   0.40475726    1.1385453   -5.7993893    6.2041465    1.5433025 
 1610000   0.79855602  -0.25403871   0.40095494    1.1273318   -5.8017084    6.2026634    1.5282867 
 1620000   0.79977552  -0.21834848   0.40873212    1.1290533   -5.7946996    6.2034317    1.5377855 
 1630000   0.80188828  -0.16038731   0.40741324    1.1320359   -5.7932661    6.2006793    1.5394492 
 1640000   0.80426164  -0.25325333   0.40518495    1.1353865    -5.798738     6.203923    1.5405714 
 1650000   0.80075217  -0.26671886   0.40770626    1.1304321   -5.7986137      6.20632    1.5381384 
 1660000   0.80101956  -0.22856464   0.40998741    1.1308096   -5.7934985    6.2034859     1.540797 
 1670000   0.80046226  -0.22835862   0.40663659    1.1300228   -5.8004747    6.2071113    1.5366594 
 1680000   0.79758989  -0.24284021   0.40574687    1.1259679   -5.7975262    6.2032731    1.5317147 
 1690000   0.80215161  -0.17439386   0.40780821    1.1324077   -5.7960802    6.2038884    1.5402159 
 1700000   0.80466213   -0.2488221   0.40983707    1.1359518   -5.7930983    6.2029354    1.5457889 
 1710000   0.79833216  -0.20066187   0.41076252    1.1270157   -5.7886818    6.1994443    1.5377782 
 1720000   0.79396141  -0.30387798    0.3994342    1.1208455   -5.8011605    6.2005947    1.5202797 
 1730000   0.80468789  -0.25044898    0.3990294    1.1359882   -5.8002051    6.1992345    1.5350176 
 1740000   0.80040674  -0.25031515   0.40714148    1.1299444   -5.7970449    6.2041864    1.5370859 
 1750000   0.79761692    -0.246671   0.40033576     1.126006   -5.8024083     6.202744    1.5263418 
 1760000   0.79533109  -0.19366995    0.3996887    1.1227791    -5.806188    6.2058767    1.5224678 
 1770000   0.79878427  -0.28737861   0.40814488     1.127654   -5.7924245    6.2005694    1.5357989 
 1780000   0.80144446  -0.25306293   0.40308509    1.1314094   -5.8001042    6.2031893    1.5344945 
 1790000   0.80332291  -0.22031891   0.41130379    1.1340612   -5.7934205    6.2047243     1.545365 
 1800000   0.79809278  -0.20462115   0.41067136    1.1266778   -5.7938716     6.204543    1.5373492 
 1810000   0.79763719  -0.26742193   0.40740516    1.1260346   -5.7971211    6.2045263    1.5334398 
 1820000   0.79531958  -0.19786283   0.41473003    1.1227628   -5.7897271    6.2044571    1.5374929 
 1830000   0.79994284  -0.25439106   0.40171486    1.1292895   -5.8007854    6.2025002    1.5310044 
 1840000   0.80654006  -0.23145548   0.41413443    1.1386029   -5.7908212    6.2049556    1.5527374 
 1850000   0.80317304  -0.18656961   0.40993135    1.1338497    -5.793506    6.2034373     1.543781 
 1860000   0.80119835  -0.28180763   0.41731422     1.131062   -5.7886203    6.2059345    1.5483762 
 1870000   0.79756331  -0.24131544   0.41660686    1.1259303        -5.79    6.2066069    1.5425372 
 1880000   0.80458309  -0.17826517   0.41060446    1.1358403   -5.7924163    6.2030207    1.5464447 
 1890000   0.80234705  -0.15858121   0.40500579    1.1326836    -5.800245    6.2052508    1.5376894 
 1900000   0.80003953    -0.326539   0.40432186    1.1294261   -5.8008318    6.2051537    1.5337479 
 1910000   0.79506652  -0.21070601   0.40548474    1.1224056   -5.7968059    6.2022906    1.5278903 
 1920000   0.79977466  -0.20479639   0.41209582    1.1290521   -5.7920994    6.2041952    1.5411479 
 1930000   0.80228211  -0.27892366   0.40582945    1.1325919   -5.7953546     6.201184    1.5384214 
 1940000    0.7963045  -0.24949874   0.40444191    1.1241533   -5.8013231     6.205765    1.5285952 
 1950000   0.79792761  -0.18247496   0.40361905    1.1264446   -5.8003281    6.2039471    1.5300637 
 1960000   0.79565374  -0.26348472   0.40616785    1.1232346   -5.7982554    6.2044232    1.5294024 
 1970000   0.79828029  -0.26100845   0.41202688    1.1269425   -5.7913555    6.2033824    1.5389694 
 1980000   0.80917525   -0.2461413    0.4033736    1.1423231   -5.8009702    6.2043438    1.5456967 
 1990000    0.7900827  -0.17639038   0.40566359    1.1153699   -5.7980629    6.2037265    1.5210335 
 2000000   0.79956588  -0.21372491   0.41439252    1.1287574   -5.7874743    6.2018668    1.5431499 
 2010000    0.7962807  -0.28458952   0.40877138    1.1241197   -5.7941747    6.2029461     1.532891 
 2020000   0.80167414  -0.26759539   0.40712792    1.1317337   -5.7964064    6.2035344    1.5388616 
 2030000   0.80399852  -0.25463836    0.4002595     1.135015   -5.8026875     6.202947    1.5352745 
 2040000   0.80379513  -0.22386344   0.39993835    1.1347279   -5.8031737     6.203112    1.5346662 
 2050000   0.80295298  -0.23363348    0.4146406     1.133539   -5.7909698    6.2056104    1.5481796 
 2060000   0.80407577  -0.26562593   0.40193867    1.1351241   -5.8009896    6.2029283    1.5370627 
 2070000   0.79898306  -0.21447701   0.40819885    1.1279346   -5.7922621    6.2004609    1.5361335 
 2080000   0.79926892  -0.20526412   0.41413284    1.1283382    -5.787359    6.2014919     1.542471 
 2090000   0.79964317  -0.22862828    0.4049708    1.1288665   -5.7964414    6.2014122    1.5338373 
 2100000   0.80056247  -0.23139781   0.41376125    1.1301643   -5.7881146    6.2018759    1.5439255 
 2110000   0.79667969  -0.24970625   0.40077033    1.1246829   -5.7991218    6.1998921    1.5254532 
 2120000   0.79488006  -0.21726291   0.40926855    1.1221424   -5.7910615      6.20033    1.5314109 
 2130000    0.8049841  -0.24455939   0.40459539    1.1364064   -5.7972869    6.2018823    1.5410018 
 2140000   0.79239402  -0.26662046   0.40754962    1.1186328   -5.7947763    6.2023259    1.5261824 
 2150000   0.79668449  -0.23914754   0.40393302    1.1246897   -5.7996653    6.2035983    1.5286227 
 2160000    0.8019678  -0.25074862   0.40946872    1.1321482   -5.7948382    6.2043069    1.5416169 
 2170000   0.79923855  -0.26949033    0.4070605    1.1282953   -5.7978712    6.2049317    1.5353558 
 2180000   0.80222093   -0.2669265   0.40829848    1.1325056   -5.7946196    6.2029181     1.540804 
 2190000   0.79789768  -0.28906087   0.40065664    1.1264024   -5.8024602    6.2031168     1.527059 
 2200000   0.79922047   -0.2404755   0.41924875    1.1282698   -5.7831186    6.2023673    1.5475185 
 2210000   0.79412019  -0.21743916    0.4066379    1.1210696   -5.7963825    6.2030204    1.5277075 
 2220000   0.80084793  -0.25699721   0.40888274    1.1305673   -5.7981768    6.2070596      1.53945 
 2230000   0.79890508  -0.24518993   0.40641064    1.1278245   -5.8001976    6.2066083    1.5342352 
 2240000   0.79944243  -0.26553442   0.40378042    1.1285831   -5.7949965    6.1987769    1.5323635 
 2250000   0.79674116  -0.31255735   0.40033474    1.1247697   -5.8004169    6.2007516    1.5251044 
 2260000   0.79392375  -0.27057638   0.40521783    1.1207923    -5.798502    6.2037198    1.5260102 
 2270000   0.80228519  -0.28430223   0.40091552    1.1325963   -5.8051129    6.2060284    1.5335118 
 2280000   0.79623811  -0.34053268   0.40168192    1.1240595   -5.7993734    6.2010553    1.5257414 
 2290000   0.80047318  -0.18289164    0.4209211    1.1300382   -5.7854099     6.206331    1.5509593 
 2300000    0.8037277  -0.27574522    0.4125866    1.1346327   -5.7931801    6.2057667    1.5472193 
 2310000   0.79925074   -0.1971384   0.40644018    1.1283125   -5.7950396    6.2014798    1.5347527 
 2320000   0.80384988  -0.26883593   0.41176223    1.1348052   -5.7934558    6.2052181    1.5465674 
 2330000   0.79637594  -0.21639353   0.40502707    1.1242541   -5.8001774    6.2052044    1.5292812 
 2340000   0.79558593  -0.26443687   0.39644147    1.1231388   -5.8049794    6.2014208    1.5195803 
 2350000   0.79391341  -0.26861325   0.40496136    1.1207777   -5.7970108    6.2019722    1.5257391 
 2360000   0.80016671  -0.26551636   0.40209255    1.1296056   -5.8032152    6.2053077    1.5316981 
 2370000   0.79986851  -0.24003889   0.40177345    1.1291846   -5.8029023    6.2046757    1.5309581 
 2380000   0.79783681  -0.20961489   0.40901434    1.1263164   -5.7919886    6.2010029    1.5353308 
 2390000   0.80441505  -0.14603292   0.39647824     1.135603   -5.8071515    6.2036298    1.5320813 
 2400000   0.79594916   -0.2140837   0.40878403    1.1236516   -5.7966105    6.2053945    1.5324357 
 2410000   0.80361158  -0.26143568   0.40434893    1.1344688   -5.8017622    6.2061111    1.5388177 
 2420000   0.79585347  -0.21749942   0.40747879    1.1235165   -5.7966251    6.2041039    1.5309953 
 2430000   0.79574416  -0.24406418    0.4046979    1.1233622   -5.7966159    6.2013138    1.5280601 
 2440000   0.79986979  -0.30083218   0.40638416    1.1291864   -5.7971145    6.2034987    1.5355706 
 2450000   0.80085626  -0.21652184   0.40981899     1.130579    -5.792226     6.202045     1.540398 
 2460000   0.81086153  -0.13637375   0.40935303    1.1447036   -5.7930995    6.2024525    1.5540566 
 2470000   0.79591238  -0.17384144   0.41358192    1.1235997   -5.7928396    6.2064215    1.5371816 
 2480000   0.80493889  -0.15916628   0.40807148    1.1363425   -5.7956531    6.2037246     1.544414 
 2490000   0.80580698  -0.16389215   0.40939344     1.137568   -5.7955975     6.204991    1.5469615 
 2500000   0.79918565  -0.26781808   0.40905846    1.1282206   -5.7942748    6.2033333    1.5372791 
 2510000   0.79228246  -0.18833723    0.4033065    1.1184753   -5.7988417    6.2021482    1.5217818 
 2520000   0.79993036  -0.24430678   0.40456382    1.1292719   -5.7961764    6.2007403    1.5338357 
 2530000   0.79326706  -0.17396813   0.41019734    1.1198653   -5.7941742    6.2043716    1.5300626 
 2540000   0.79837046  -0.26472703   0.39803771    1.1270698     -5.80104    6.1990777    1.5251075 
 2550000   0.80290673  -0.15447029   0.42430025    1.1334737   -5.7840276    6.2083279     1.557774 
 2560000    0.7975305  -0.24978064   0.40757759     1.125884   -5.7934101    6.2009877    1.5334616 
 2570000   0.79293378  -0.23129926   0.40265996    1.1193948   -5.8033935    6.2060535    1.5220547 
 2580000   0.80483875  -0.30145432   0.40497099    1.1362012   -5.7962268    6.2011978    1.5411721 
 2590000   0.79748463  -0.24081145   0.39965916    1.1258193   -5.8030058    6.2026649    1.5254784 
 2600000   0.80444177  -0.25033305   0.40818189    1.1356407   -5.7936039    6.2017858    1.5438226 
 2610000   0.80157725   -0.2006694   0.40763504    1.1315969   -5.7981291    6.2057641    1.5392319 
 2620000   0.80347344  -0.25531916   0.40599148    1.1342737   -5.7963786    6.2023701    1.5402652 
 2630000    0.7974526  -0.19565709   0.40572897     1.125774   -5.7966267    6.2023557     1.531503 
 2640000   0.79948346  -0.16042864   0.40599178     1.128641   -5.7989367    6.2049285    1.5346328 
 2650000   0.80161945  -0.24652093   0.40510701    1.1316564   -5.8004466    6.2055536    1.5367635 
 2660000   0.79744643  -0.25485636     0.399383    1.1257653   -5.8023092    6.2016922    1.5251483 
 2670000   0.80078419  -0.23302276   0.40457731    1.1304773    -5.798201    6.2027783    1.5350546 
 2680000   0.79979451  -0.26400366   0.40898741    1.1290802   -5.7934734    6.2024608    1.5380676 
 2690000   0.79869382  -0.29999858   0.40178402    1.1275263   -5.8016426    6.2034266    1.5293103 
 2700000   0.80496627  -0.23423929   0.40615706    1.1363812   -5.7985814    6.2047384    1.5425382 
 2710000   0.80110517  -0.20965471   0.40827875    1.1309304   -5.7971965    6.2054752    1.5392092 
 2720000   0.80123615  -0.22020967   0.41214839    1.1311153   -5.7920538    6.2042022    1.5432637 
 2730000   0.81061912  -0.27207166   0.40962344    1.1443614   -5.7927836     6.202407    1.5539848 
 2740000   0.79739568  -0.24925692   0.41077876    1.1256937   -5.7933322    6.2041109    1.5364724 
 2750000   0.80304024  -0.21532204   0.39755563    1.1336622   -5.8044031    6.2019587    1.5312178 
 2760000   0.80465915  -0.21183155   0.40537086    1.1359476   -5.7967437    6.2021146    1.5413185 
 2770000   0.80336627  -0.22865664   0.40620649    1.1341225   -5.8018747    6.2080812    1.5403289 
 2780000   0.79851407  -0.22252743   0.41467869    1.1272725   -5.7911966    6.2058753    1.5419512 
 2790000   0.79699578  -0.23238549   0.41197347    1.1251291   -5.7945274    6.2065008    1.5371026 
 2800000   0.79865521  -0.20285612   0.40021896    1.1274718   -5.8017532    6.2019721    1.5276908 
 2810000   0.80017957  -0.28816278   0.40555377    1.1296237   -5.7973738    6.2029276    1.5351775 
 2820000   0.79896114  -0.20445807   0.39623593    1.1279037   -5.8040709    6.2003069    1.5241396 
 2830000   0.79735506  -0.21265136   0.40200163    1.1256363   -5.8008781    6.2028797     1.527638 
 2840000   0.79931737  -0.26578046   0.40025255    1.1284066   -5.8032663    6.2035188    1.5286591 
 2850000   0.80589928  -0.27972773   0.39667918    1.1376983   -5.8073713    6.2040505    1.5343775 
 2860000   0.79511939  -0.26350619   0.40667667    1.1224802   -5.7977868    6.2044635    1.5291569 
 2870000   0.79880079  -0.27489602   0.40022867    1.1276773   -5.8040544    6.2042831     1.527906 
 2880000   0.79806191  -0.19392399   0.40903198    1.1266342   -5.7962998    6.2053317    1.5356662 
 2890000   0.80052286  -0.25702746   0.40956282    1.1301084   -5.7985424    6.2081053    1.5396712 
 2900000   0.80372795  -0.20856006    0.4107331     1.134633   -5.7968591    6.2075922    1.5453661 
 2910000   0.80273597  -0.23735349   0.40605219    1.1332326   -5.7967408     6.202793    1.5392848 
 2920000   0.80185445  -0.19648436   0.41221464    1.1319882    -5.791406    6.2036207    1.5442028 
 2930000   0.79463838  -0.22081747   0.40880581    1.1218012   -5.7975291    6.2063349     1.530607 
 2940000   0.80498427  -0.21704345   0.41423975    1.1364066   -5.7892549    6.2034947    1.5506464 
 2950000   0.80288867  -0.18318502   0.40195386    1.1334482   -5.8009672     6.202921    1.5354021 
 2960000    0.8001415   -0.2343082   0.40634047      1.12957    -5.795766    6.2021064    1.5359105 
 2970000    0.7993241  -0.26044853   0.40473283    1.1284161   -5.7995517    6.2042845    1.5331489 
 2980000   0.80979175  -0.32669942   0.40311686    1.1431934    -5.797608    6.2007248    1.5463102 
 2990000   0.79897916  -0.27162839   0.40001011    1.1279291   -5.8031281    6.2031382    1.5279392 
 3000000   0.79836529  -0.27538171   0.39609333    1.1270625   -5.8105936    6.2066869    1.5231558 
 3010000   0.80692725  -0.23878147    0.4146092    1.1391495   -5.7896866    6.2042958    1.5537587 
 3020000   0.80220303  -0.18945616   0.40690095    1.1324803   -5.7946197    6.2015206    1.5393812 
 3030000   0.80148705  -0.27160048   0.40695893    1.1314695   -5.7972863    6.2042452    1.5384285 
 3040000   0.79579895  -0.23212496   0.41078095    1.1234396   -5.7956694    6.2064504    1.5342205 
 3050000   0.79591624  -0.23920681   0.40635657    1.1236051   -5.7958119    6.2021685    1.5299617 
 3060000   0.80204848  -0.23411728   0.41025885    1.1322621   -5.7948557    6.2051146    1.5425209 
 3070000   0.79938151  -0.22397107   0.40285238    1.1284971   -5.8017636    6.2046159    1.5313495 
 3080000   0.80325649   -0.3004562   0.39995544    1.1339675   -5.8018554    6.2018108    1.5339229 
 3090000   0.80304149  -0.20876027   0.40677808     1.133664   -5.7973373    6.2041154     1.540442 
 3100000   0.79989235  -0.25340465    0.4106339    1.1292183   -5.7941974    6.2048312    1.5398522 
 3110000   0.80330326   -0.2899759    0.4009059    1.1340335    -5.800433    6.2013389    1.5349394 
 3120000   0.80902068  -0.19243136   0.41274757    1.1421049   -5.7921119    6.2048595    1.5548524 
 3130000   0.80356714   -0.2726884   0.40890181     1.134406   -5.7937582      6.20266    1.5433078 
 3140000   0.80347621  -0.25830233   0.40710749    1.1342777   -5.7969506    6.2040581    1.5413851 
 3150000   0.80529202  -0.23820476   0.40048517    1.1368411   -5.8031642    6.2036494    1.5373262 
 3160000   0.79760167  -0.26781135   0.40903737    1.1259845   -5.7967198    6.2057571    1.5350219 
 3170000   0.79899287  -0.21902517   0.39753447    1.1279485   -5.8014389    6.1989734    1.5254829 
 3180000   0.80186781  -0.18757915   0.41575805     1.132007   -5.7917759    6.2075339    1.5477651 
 3190000   0.80388551  -0.21792369   0.40757763    1.1348555   -5.7970279    6.2046056    1.5424331 
 3200000   0.79730406  -0.24817207   0.40190517    1.1255644   -5.7999988    6.2019039    1.5274695 
 3210000   0.80138624  -0.22994508   0.40099238    1.1313272   -5.8031751    6.2041674    1.5323196 
 3220000   0.80357068  -0.24147391   0.40139831     1.134411    -5.799374    6.2007724    1.5358093 
 3230000   0.80490919  -0.25318511   0.40322743    1.1363006    -5.799658    6.2028854     1.539528 
 3240000   0.80086235  -0.21281271   0.40610452    1.1305876   -5.7976546    6.2037591    1.5366922 
 3250000   0.79775115  -0.20885807   0.41141444    1.1261955    -5.791779    6.2031934    1.5376099 
 3260000   0.80605311  -0.22032624   0.40818791    1.1379155   -5.7966582    6.2048461    1.5461034 
 3270000   0.79925579  -0.17740063   0.40395302    1.1283196   -5.7979783    6.2019313    1.5322727 
 3280000   0.80385025  -0.21347986   0.40267636    1.1348057   -5.7987947    6.2014711    1.5374821 
 3290000    0.8008675  -0.25092839   0.40831857    1.1305949   -5.7962883    6.2046068    1.5389135 
 3300000   0.79489952  -0.25595893   0.40752172    1.1221698   -5.7942179    6.2017396    1.5296915 
 3310000   0.80451803  -0.23519661   0.41114394    1.1357484   -5.7964246    6.2075685    1.5468923 
 3320000   0.79998046   -0.2759923   0.40513132    1.1293427   -5.7995287      6.20466     1.534474 
 3330000   0.79472637  -0.26988061    0.3970811    1.1219254   -5.8059135    6.2029946    1.5190065 
 3340000   0.79842146  -0.28674251   0.40613172    1.1271418    -5.798176    6.2043077    1.5332735 
 3350000    0.8092252  -0.24913571    0.3945513    1.1423936   -5.8076886    6.2022399    1.5369449 
 3360000   0.80113162  -0.16693526   0.41024829    1.1309678   -5.7962121    6.2064604    1.5412161 
 3370000   0.80187763  -0.24372792   0.40854072    1.1320209   -5.7972314    6.2057721    1.5405616 
 3380000    0.8038379  -0.24016107   0.40618764    1.1347883    -5.797512    6.2036996    1.5409759 
 3390000   0.79484923  -0.16090548   0.39815854    1.1220988   -5.8041861    6.2023446    1.5202574 
 3400000   0.79677541  -0.22393324   0.41310546     1.124818    -5.792927    6.2060324    1.5379235 
 3410000   0.80612389  -0.19632251   0.40462919    1.1380154   -5.8007971    6.2054262    1.5426446 
 3420000   0.79622682  -0.21719891   0.39326197    1.1240436   -5.8101089    6.2033709    1.5173056 
 3430000   0.80635761  -0.20089223   0.40744291    1.1383454   -5.7973579    6.2048008    1.5457883 
 3440000   0.79744829  -0.29513578    0.4018959     1.125768   -5.8004311    6.2023271    1.5276639 
 3450000   0.79938974   -0.2351591   0.40168096    1.1285087   -5.7985113    6.2001923    1.5301897 
 3460000   0.80513604  -0.27416918   0.40244122    1.1366208   -5.7996218     6.202063    1.5390621 
 3470000   0.79677362  -0.27191046   0.40823954    1.1248155   -5.7968342    6.2050737    1.5330551 
 3480000    0.7983405   -0.2201408   0.40632832    1.1270275   -5.7969254    6.2032537    1.5333558 
 3490000   0.80167087  -0.22239638   0.40521159     1.131729   -5.7997723    6.2049839    1.5369406 
 3500000   0.80357522  -0.21932771    0.4004357    1.1344174   -5.8039491    6.2043848    1.5348531 
 3510000   0.80557765  -0.25100921   0.40502952    1.1372443   -5.7961164     6.201146    1.5422738 
 3520000   0.80690513  -0.19630652   0.40331019    1.1391183    -5.799059    6.2023692    1.5424285 
 3530000   0.79708005  -0.23980459   0.40672117    1.1252481    -5.795634    6.2023551    1.5319693 
 3540000   0.79650495  -0.20074283   0.40622544    1.1244362   -5.7990253    6.2052508    1.5306617 
 3550000   0.79978943  -0.23730356   0.40936325     1.129073   -5.7973311    6.2066944    1.5384362 
 3560000   0.79745674  -0.24637678   0.41038476    1.1257799   -5.7945736    6.2049583    1.5361647 
 3570000   0.79813891  -0.19000527   0.41059274    1.1267429   -5.7966157    6.2072084    1.5373357 
 3580000   0.80219374  -0.21690793   0.40080785    1.1324672   -5.7998542    6.2006621     1.533275 
 3590000   0.80215937  -0.15138768    0.4104899    1.1324187   -5.7956568    6.2061467    1.5429086 
 3600000   0.80359378  -0.19195137    0.4166447    1.1344436   -5.7900397    6.2066844    1.5510883 
 3610000    0.7949787  -0.26477293   0.39960049    1.1222816   -5.8020157    6.2016162    1.5218821 
 3620000   0.80009589  -0.18829221   0.41253232    1.1295056   -5.7923159    6.2048483    1.5420379 
 3630000   0.79857687  -0.26643245   0.40071866    1.1273612   -5.8023812    6.2030999    1.5280798 
 3640000   0.80048226  -0.17506308    0.3931791    1.1300511   -5.8117392    6.2049183    1.5232302 
 3650000   0.79786168  -0.24998519   0.40186323    1.1263516   -5.8028675    6.2047307    1.5282148 
 3660000   0.79938696  -0.23862485   0.40706519    1.1285048   -5.7962971    6.2033623      1.53557 
 3670000   0.80075954  -0.20159011   0.40773506    1.1304425   -5.7969329    6.2046679    1.5381776 
 3680000   0.79797357   -0.2473546   0.40021768    1.1265095   -5.8039003     6.204118    1.5267272 
 3690000   0.79964156  -0.23488456   0.40340684    1.1288642   -5.7995996    6.2030064    1.5322711 
 3700000   0.79586097  -0.25031912   0.40535605    1.1235271   -5.7984934    6.2038494    1.5288832 
 3710000   0.79553161  -0.25018659   0.40190445    1.1230622   -5.8047087    6.2066131    1.5249666 
 3720000   0.79658491  -0.20473371   0.40278003    1.1245491   -5.8019125    6.2046925    1.5273291 
 3730000   0.80092633  -0.24804519   0.40627297     1.130678   -5.7987693    6.2050423    1.5369509 
 3740000    0.8010347  -0.27093849   0.40671821    1.1308309   -5.7978582    6.2045764    1.5375491 
 3750000   0.79847913  -0.24332104   0.40797736    1.1272232   -5.7948324    6.2028098    1.5352006 
 3760000   0.79733727  -0.24366968   0.40685554    1.1256112   -5.7962398    6.2030953    1.5324668 
 3770000   0.80157817   -0.2210449   0.40989287    1.1315982   -5.7932807    6.2031735     1.541491 
 3780000   0.79476285  -0.25858416   0.41041131    1.1219769   -5.7935889    6.2040003    1.5323882 
 3790000   0.80391358  -0.22675884   0.40386996    1.1348951   -5.8001004    6.2039703    1.5387651 
 3800000   0.80025421  -0.26887418    0.4033086    1.1297291   -5.7984582    6.2017668    1.5330377 
 3810000   0.80595576  -0.18735958   0.40981708    1.1377781   -5.7962732    6.2060903    1.5475951 
 3820000   0.79933144  -0.23731916   0.40842857    1.1284264   -5.7935379    6.2019665     1.536855 
 3830000   0.80267602  -0.19483984   0.40178983     1.133148   -5.8008763    6.2026661    1.5349378 
 3840000    0.7937434  -0.23062351   0.41097175    1.1205377   -5.7959367    6.2069084    1.5315095 
 3850000   0.79764923  -0.28139589   0.39906768    1.1260516   -5.8054244     6.204492    1.5251193 
 3860000   0.79610604  -0.22633222   0.40180623    1.1238731   -5.8019254    6.2037316    1.5256793 
 3870000    0.7964095  -0.24406618   0.39429175    1.1243015   -5.8086734    6.2029652    1.5185932 
 3880000   0.80559124  -0.23327911   0.40917526    1.1372635    -5.795595    6.2047703    1.5464387 
 3890000   0.79520064  -0.23805409   0.40188603    1.1225949   -5.7988034    6.2006894    1.5244809 
 3900000    0.8036412  -0.29380507   0.40405816    1.1345106   -5.7992312    6.2032894    1.5385687 
 3910000   0.78812909   -0.2492392   0.41081206    1.1126119   -5.7925413    6.2033533     1.523424 
 3920000   0.79392951  -0.23435543   0.40357828    1.1208004   -5.7986802    6.2022585    1.5243787 
 3930000   0.80128996  -0.22549946   0.40052161    1.1311913   -5.8026192    6.2031408    1.5317129 
 3940000   0.79895131  -0.23506258   0.40004007    1.1278898   -5.8030797    6.2031198    1.5279299 
 3950000   0.79745472   -0.2741169    0.3981615     1.125777   -5.8044759    6.2026374    1.5239385 
 3960000    0.7943469  -0.17543798   0.40586081    1.1213897   -5.7978917    6.2037525    1.5272505 
 3970000    0.8043756  -0.26352217   0.39921591    1.1355473   -5.8027189    6.2019349    1.5347632 
 3980000   0.79450347  -0.27270079   0.39496822    1.1216107   -5.8074181    6.2023863    1.5165789 
 3990000   0.80805448  -0.19561226   0.39967898    1.1407409   -5.8057241    6.2054031    1.5404198 
 4000000   0.79757357  -0.20901839   0.39982845    1.1259448   -5.8009723    6.2008007    1.5257733 
 4010000   0.79924064  -0.21587352   0.41051558    1.1282982   -5.7913119    6.2018275    1.5388138 
 4020000   0.80595725  -0.22720589   0.40489966    1.1377802   -5.7975889    6.2024886    1.5426798 
 4030000   0.80435615  -0.25632199   0.41676487    1.1355199    -5.790489    6.2072539    1.5522847 
 4040000   0.79677738  -0.22142958   0.40801569    1.1248208   -5.7954386    6.2034543    1.5328365 
 4050000   0.80550233   -0.1989462   0.40251852     1.137138   -5.8010223    6.2035408    1.5396565 
 4060000   0.79089345  -0.25999044   0.39717309    1.1165144   -5.8036518    6.2008249    1.5136875 
 4070000   0.79732369  -0.15444553   0.40779326    1.1255921   -5.7957989    6.2035922    1.5333853 
 4080000   0.80051091   -0.2202885   0.40777418    1.1300915   -5.7954963    6.2032705    1.5378657 
 4090000   0.79824526  -0.24052968   0.40798873    1.1268931   -5.7959877    6.2039765    1.5348818 
 4100000   0.80276756  -0.26976478    0.3941641    1.1332772   -5.8060752    6.2002393    1.5274413 
 4110000   0.79750289  -0.18583584   0.40552416     1.125845   -5.7943193    6.1998435    1.5313692 
 4120000   0.80929971  -0.18076986   0.40298572    1.1424988   -5.7995309    6.2025166    1.5454845 
 4130000   0.79731693  -0.26939382   0.40850452    1.1255825   -5.7938922    6.2023967     1.534087 
 4140000   0.79391341  -0.25905441   0.40924954    1.1207777   -5.7970585     6.206308    1.5300273 
 4150000   0.79968842  -0.28837966    0.4059335    1.1289304   -5.7968166    6.2027501    1.5348639 
 4160000   0.80203566  -0.21936037   0.40444978     1.132244   -5.7998189    6.2042687    1.5366938 
 4170000   0.79726104  -0.18961302   0.41581101    1.1255036   -5.7886822    6.2044932    1.5413146 
 4180000   0.80410134  -0.21840114   0.40586622    1.1351602   -5.7959718    6.2018381    1.5410264 
 4190000   0.80095481  -0.20850738   0.40348473    1.1307182   -5.8006497    6.2041345    1.5342029 
 4200000   0.80343708  -0.18311533   0.40234674    1.1342224   -5.8005614    6.2029082    1.5365692 
 4210000   0.80105688  -0.24584226    0.4116885    1.1308622   -5.7947011    6.2063896    1.5425508 
 4220000   0.79962921  -0.15555767   0.40636091    1.1288468   -5.7980072    6.2043681    1.5352077 
 4230000   0.79586582  -0.17069879   0.40825148     1.123534   -5.7946289    6.2028803    1.5317854 
 4240000   0.80362442  -0.18388198   0.40864269    1.1344869   -5.7961593     6.204802    1.5431296 
 4250000   0.79201065  -0.22071045   0.40267855    1.1180916   -5.8058013    6.2084799    1.5207701 
 4260000   0.79301493  -0.24707672    0.4000102    1.1195093    -5.801587    6.2015972    1.5195195 
 4270000   0.80730083  -0.19663064   0.41217254    1.1396769   -5.7952839    6.2074564    1.5518495 
 4280000   0.79691962  -0.16571949   0.40170027    1.1250216    -5.802292    6.2039923    1.5267219 
 4290000   0.80367489  -0.27107263    0.4049869    1.1345581   -5.7992185    6.2042054     1.539545 
 4300000    0.7968704  -0.27076518   0.40789855    1.1249521   -5.7927822    6.2006808    1.5328507 
 4310000   0.80148786  -0.17495209   0.41472164    1.1314707   -5.7907971    6.2055188    1.5461923 
 4320000   0.80529808  -0.18695074   0.41438895    1.1368496    -5.788832     6.203221    1.5512386 
 4330000   0.79645417  -0.16103907   0.40814285    1.1243646   -5.7965855    6.2047283    1.5325074 
 4340000   0.80235137  -0.22644466   0.40137888    1.1326897    -5.804861    6.2062399    1.5340686 
 4350000   0.79539089  -0.27936868   0.41611133    1.1228635   -5.7874731    6.2035844    1.5389748 
 4360000   0.80361741  -0.29090371   0.40722523     1.134477   -5.7971135    6.2043388    1.5417022 
 4370000   0.80428122  -0.21453219   0.39820338    1.1354141    -5.807428    6.2056314    1.5336175 
 4380000   0.80654474  -0.19301495   0.40424964    1.1386095   -5.7999915    6.2042412    1.5428592 
 4390000   0.80918023  -0.13849606   0.40473417    1.1423301   -5.7996092    6.2043433    1.5470643 
 4400000    0.8038131  -0.22697131   0.40095498    1.1347532   -5.8046469    6.2056019    1.5357082 
 4410000   0.79748297  -0.21422489   0.41382534    1.1258169   -5.7907994    6.2046248    1.5396423 
 4420000   0.80294633  -0.19647055   0.41376619    1.1335296   -5.7889594    6.2027256    1.5472958 
 4430000   0.80388094   -0.1110947   0.40775942     1.134849    -5.796379    6.2041384    1.5426084 
 4440000   0.79283118  -0.17947625   0.41200709    1.1192499   -5.7905849     6.202592     1.531257 
 4450000   0.80177465  -0.19035394   0.41340558    1.1318755   -5.7913584     6.204764    1.5452811 
 4460000      0.79728  -0.21280299   0.41194407    1.1255304   -5.7923448    6.2042888    1.5374745 
 4470000   0.79783066  -0.22434327   0.40590484    1.1263078     -5.79549    6.2013949    1.5322126 
 4480000    0.7982348  -0.19581361   0.41163771    1.1268783   -5.7922394    6.2038771     1.538516 
 4490000   0.80333138  -0.27624161   0.40340461    1.1340732   -5.8001218    6.2035264    1.5374778 
 4500000   0.79737225  -0.23729457   0.39697045    1.1256606   -5.8023594    6.1993299    1.5226311 
 4510000   0.80223546  -0.15433592   0.40600826    1.1325261   -5.7958765    6.2018848    1.5385343 
 4520000   0.80567329  -0.21699778   0.40608996    1.1373793   -5.7964273    6.2025173    1.5434693 
 4530000   0.79673867  -0.25070634   0.40484012    1.1247662   -5.8003481    6.2051882    1.5296063 
 4540000    0.8113924  -0.22452053   0.40845028     1.145453    -5.796666    6.2051163    1.5539033 
 4550000   0.80129772  -0.22497556   0.40439229    1.1312023   -5.7962116    6.2006039    1.5355945 
 4560000   0.79922807  -0.20636926   0.40653788    1.1282805   -5.7952909    6.2018288    1.5348184 
 4570000   0.80785951  -0.26681282   0.40326485    1.1404656   -5.7989771     6.202242    1.5437305 
 4580000   0.80232043  -0.21966022   0.41204852     1.132646   -5.7949031    6.2069517    1.5446945 
 4590000   0.80117944  -0.25270736   0.40617981    1.1310353   -5.7976986    6.2038784    1.5372151 
 4600000   0.79992603  -0.17672698   0.40579499    1.1292658   -5.7967705    6.2025654    1.5350608 
 4610000   0.79960044  -0.21656422   0.40742996    1.1288062   -5.7958128    6.2032428    1.5362361 
 4620000    0.7946245  -0.22037313   0.40213139    1.1217816   -5.8019575    6.2040889     1.523913 
 4630000   0.80191572  -0.27245261    0.4070013    1.1320747   -5.7984192    6.2054205     1.539076 
 4640000   0.80328372  -0.22472447   0.40256238    1.1340059   -5.8036307    6.2061931    1.5365683 
 4650000   0.79624508  -0.16708351    0.4182053    1.1240694   -5.7851304    6.2033357    1.5422747 
 4660000   0.79667671  -0.22155127   0.40797056    1.1246787   -5.7940347    6.2020053    1.5326493 
 4670000   0.79681833  -0.24407847   0.40467719    1.1248786   -5.7980038     6.202681    1.5295558 
 4680000   0.79883027  -0.28529242   0.40217396    1.1277189   -5.8027013    6.2048753    1.5298929 
 4690000   0.80171315  -0.24434212   0.40409043    1.1317887   -5.7979345    6.2020249    1.5358792 
 4700000   0.81258411  -0.21621369   0.40558201    1.1471354   -5.7970939    6.2026759    1.5527174 
 4710000   0.80492983  -0.16344391   0.40403834    1.1363297   -5.7994819    6.2035202    1.5403681 
 4720000   0.79973403  -0.17356658   0.40793494    1.1289948   -5.7946988    6.2026337    1.5369297 
 4730000   0.80892753   -0.2764949    0.3982601    1.1419733   -5.8036063    6.2018664    1.5402334 
 4740000   0.80239668  -0.28004988   0.40075041    1.1327537   -5.7997581    6.2005085    1.5335041 
 4750000   0.79699343  -0.24472822   0.40282165    1.1251258   -5.8032795    6.2061011    1.5279475 
 4760000   0.79870041  -0.23138916   0.39467354    1.1275356   -5.8065921    6.2012657    1.5222091 
 4770000   0.79758316  -0.32470131   0.40443142    1.1259584   -5.7990829    6.2035143    1.5303898 
 4780000   0.80166616  -0.21572119   0.40970482    1.1317224   -5.7958147    6.2055195    1.5414272 
 4790000   0.80158341  -0.21392526   0.40501462    1.1316056   -5.7989143    6.2039289    1.5366202 
 4800000   0.79521624  -0.21993299   0.40316078    1.1226169   -5.7999247    6.2030855    1.5257777 
 4810000   0.79529956  -0.21791736    0.4087709    1.1227346   -5.7954462    6.2042171    1.5315055 
 4820000   0.79874703   -0.2454527   0.41165932    1.1276014   -5.7918562    6.2035155    1.5392607 
 4830000   0.80054098   -0.2450885   0.39719569     1.130134   -5.8058029    6.2029986    1.5273296 
 4840000   0.80181959  -0.20864464   0.39878053     1.131939   -5.8052045    6.2039851    1.5307195 
 4850000   0.79084312  -0.18183313    0.4063635    1.1164434   -5.7956268    6.2019903    1.5228069 
 4860000   0.80124077   -0.1841078   0.40578905    1.1311219    -5.797659    6.2034481    1.5369109 
 4870000   0.80064913  -0.23971557   0.39679705    1.1302866   -5.8063076    6.2031046    1.5270837 
 4880000   0.79343447  -0.21150422   0.40161943    1.1201016   -5.8063841    6.2080036     1.521721 
 4890000   0.79805031  -0.20638477   0.40013349    1.1266178   -5.8022021    6.2023356    1.5267513 
 4900000   0.79647891  -0.22309183   0.40960209    1.1243995   -5.7930594    6.2026615    1.5340016 
 4910000   0.80291556  -0.20600192   0.40934043    1.1334862   -5.7936105    6.2029509    1.5428266 
 4920000   0.80176564  -0.23561076   0.39974912    1.1318628   -5.8039173    6.2036664    1.5316119 
 4930000   0.80096782  -0.20073167   0.40231171    1.1307365   -5.8009297    6.2032414    1.5330482 
 4940000   0.80095602  -0.19408194   0.40524284    1.1307199   -5.7986785    6.2039213    1.5359627 
 4950000   0.80063677  -0.21544652   0.40548368    1.1302692   -5.7975459    6.2030296    1.5357529 
 4960000   0.80293658  -0.26937908   0.41690557    1.1335158   -5.7866135    6.2035191    1.5504214 
 4970000   0.79980968  -0.20820272   0.40313399    1.1291016   -5.7990509    6.2021849    1.5322355 
 4980000   0.80086856  -0.24326455   0.39943759    1.1305964    -5.805509    6.2049466     1.530034 
 4990000   0.80185429   -0.2466717   0.40149665     1.131988   -5.7999843    6.2014809    1.5334846 
 5000000   0.79988569  -0.25553449   0.40400983    1.1292089   -5.7992124    6.2032222    1.5332187 
 5010000   0.80011944   -0.2729767   0.39948037    1.1295389   -5.8053584    6.2048388    1.5290192 
 5020000   0.79523444  -0.20317156    0.4050428    1.1226426   -5.7968073    6.2018501    1.5276855 
 5030000   0.80571768  -0.23430114   0.40892475     1.137442    -5.795411    6.2043358    1.5463667 
 5040000   0.80344032  -0.22007047   0.40741322     1.134227   -5.8011079    6.2085211    1.5416402 
 5050000   0.80130018  -0.18095072    0.4101242    1.1312057   -5.7950469    6.2051711    1.5413299 
 5060000   0.80259068  -0.30586429   0.40253706    1.1330275   -5.8006542    6.2031913    1.5355646 
 5070000    0.7998065  -0.21213428   0.39926441    1.1290971     -5.80294    6.2022045    1.5283615 
 5080000   0.79599398  -0.19732415    0.4077162    1.1237149   -5.7941014    6.2018176    1.5314311 
 5090000   0.80114925   -0.2385014   0.40447293    1.1309926   -5.7971886    6.2016616    1.5354656 
 5100000   0.79359548  -0.19245699   0.41142972    1.1203289   -5.7934954    6.2049252    1.5317586 
 5110000   0.79309855  -0.22006355   0.40723536    1.1196274   -5.7941046      6.20134    1.5268627 
 5120000   0.80099371  -0.26380196   0.39635613    1.1307731   -5.8030869     6.199443    1.5271292 
 5130000   0.80408466  -0.18546108   0.40400083    1.1351366   -5.7974459    6.2014467    1.5391374 
 5140000   0.80448854  -0.24901509   0.40238233    1.1357068   -5.8019683    6.2043507    1.5380891 
 5150000   0.80446162   -0.2072914    0.4029536    1.1356688   -5.7989758    6.2019294    1.5386224 
 5160000   0.80272504  -0.24382181   0.41036026    1.1332172   -5.7950748     6.205435    1.5435775 
 5170000   0.80152498  -0.16783374   0.40145854    1.1315231   -5.8020044    6.2034629    1.5329816 
 5180000   0.80368543  -0.30054964    0.4056193     1.134573   -5.7984246    6.2040439    1.5401923 
 5190000   0.79904155  -0.26777806   0.40491817    1.1280172   -5.8009263    6.2058444    1.5329354 
 5200000   0.80228196  -0.24508719   0.40345359    1.1325917   -5.8026163    6.2060699    1.5360453 
 5210000   0.79917718  -0.18570402   0.40982931    1.1282087   -5.7956842    6.2055135     1.538038 
 5220000   0.80779025  -0.29992901   0.39707498    1.1403678   -5.8111843    6.2082593    1.5374428 
 5230000   0.79836489  -0.23654624   0.40555825    1.1270619   -5.7997989    6.2053572    1.5326202 
 5240000   0.79930574   -0.2662812   0.39790465    1.1283901   -5.8063011    6.2042057    1.5262948 
 5250000   0.80180487  -0.25698285   0.40264163    1.1319182   -5.8024911    6.2051327    1.5345598 
 5260000   0.79975783  -0.24979702   0.40070288    1.1290284   -5.8025011     6.203204    1.5297312 
 5270000   0.80339285  -0.22696288   0.40112139      1.13416   -5.8019995    6.2031209    1.5352814 
 5280000   0.80970736  -0.21747725    0.3957245    1.1430742   -5.8088614    6.2045859    1.5387987 
 5290000    0.8026067  -0.25412223   0.40457041    1.1330502   -5.7986402    6.2032106    1.5376206 
 5300000   0.80135345  -0.19326417   0.40207217    1.1312809   -5.8021215    6.2041937    1.5333531 
 5310000    0.8060428  -0.26724151    0.3948961    1.1379009   -5.8091408    6.2040369     1.532797 
 5320000    0.7951193  -0.19414568    0.4002976    1.1224801   -5.8046171    6.2049147    1.5227777 
 5330000   0.79793747  -0.24815256   0.39939875    1.1264585   -5.8013931    6.2007919    1.5258573 
 5340000   0.80302711  -0.22708718   0.40937372    1.1336437   -5.7951039    6.2044776    1.5430174 
 5350000   0.79701838  -0.23227674   0.40184975     1.125161   -5.8056793     6.207529    1.5270108 
 5360000   0.79624786  -0.24427122   0.40423483    1.1240733   -5.7995987    6.2038335    1.5283081 
 5370000   0.80481491  -0.23577715   0.39770666    1.1361675   -5.8069548    6.2046614    1.5338742 
 5380000    0.8033399   -0.1806501   0.40963741    1.1340852   -5.7963122    6.2059496    1.5437226 
 5390000   0.80521959  -0.17941567   0.41188287    1.1367388   -5.7928101     6.204693    1.5486217 
 5400000   0.79899463  -0.28793067   0.39938793    1.1279509   -5.8028658    6.2022537    1.5273389 
 5410000   0.80272613  -0.26629377   0.40224068    1.1332188   -5.8012381    6.2034788    1.5354594 
 5420000    0.7946709  -0.24832357   0.39476011    1.1218471   -5.8096223    6.2043824    1.5166072 
 5430000   0.79513882  -0.17806757   0.40358575    1.1225076   -5.7974474    6.2010331    1.5260934 
 5440000   0.79855792   -0.2374259   0.40537267    1.1273344   -5.8015227    6.2068953    1.5327071 
 5450000   0.80157806  -0.28341597   0.39724882     1.131598   -5.8086299    6.2058787    1.5288468 
 5460000    0.7939033  -0.20547279   0.40956793    1.1207634   -5.7963563    6.2059242    1.5303314 
 5470000    0.7980163  -0.19938328   0.40637355    1.1265698   -5.7960401    6.2024137    1.5329434 
 5480000   0.80981165  -0.28528189   0.40403567    1.1432215   -5.7977918    6.2018274    1.5472571 
 5490000   0.79633241  -0.22799708   0.39629221    1.1241927   -5.8068017    6.2030939    1.5204849 
 5500000   0.80071955  -0.21675379   0.40240896     1.130386   -5.8017512    6.2041602     1.532795 
 5510000   0.79975207   -0.1628702   0.40822068    1.1290202   -5.7942387    6.2024593    1.5372409 
 5520000   0.79585848  -0.23338267   0.40854101    1.1235236   -5.8000744    6.2086154    1.5320646 
 5530000   0.79414893  -0.27303087   0.40633894    1.1211102   -5.7962526    6.2025915    1.5274492 
 5540000   0.80513553  -0.21469125   0.40223164    1.1366201   -5.7987507    6.2009823    1.5388518 
 5550000   0.79687821  -0.26368238   0.39698747    1.1249632   -5.8041101    6.2010976    1.5219506 
 5560000   0.79891072  -0.29233564   0.40774191    1.1278325   -5.7983501     6.206092    1.5355744 
 5570000   0.79898816  -0.12584384   0.40740353    1.1279418   -5.7951043    6.2025078    1.5353454 
 5580000   0.80049443  -0.21275541   0.40836678    1.1300682    -5.796322    6.2046887     1.538435 
 5590000   0.80419984  -0.20141016   0.41266049    1.1352992   -5.7928035     6.205464    1.5479597 
 5600000   0.80253039  -0.21096256   0.39932417    1.1329424    -5.801925    6.2012491    1.5322666 
 5610000   0.80084544  -0.24187836   0.40803363    1.1305638   -5.7980161    6.2060497    1.5385974 
 5620000   0.80405185  -0.24045897   0.40228506    1.1350903   -5.7991483    6.2014333    1.5373753 
 5630000   0.80462355  -0.21965724   0.39812629    1.1358974   -5.8050554    6.2031817    1.5340237 
 5640000   0.80373162  -0.22926511   0.40557313    1.1346382   -5.7987674    6.2043405    1.5402113 
 5650000   0.80093637  -0.16923541    0.4098403    1.1306921   -5.7917694    6.2016097    1.5405324 
 5660000   0.80356912  -0.21404017   0.39908032    1.1344088    -5.803014    6.2020943    1.5334891 
 5670000   0.79522011  -0.24802213   0.40255197    1.1226224   -5.8038266    6.2063786    1.5251744 
 5680000    0.8009613  -0.18906273   0.40317692    1.1307273   -5.8002893    6.2034662    1.5339042 
 5690000   0.79581819  -0.20531477   0.40110125    1.1234667   -5.8012371    6.2023384     1.524568 
 5700000   0.79940788  -0.23521441   0.40265072    1.1285343    -5.801844    6.2044947    1.5311851 
 5710000   0.79862026   -0.1716563    0.4030742    1.1274224   -5.7990821    6.2021563    1.5304967 
 5720000   0.79532164  -0.23973271   0.39728554    1.1227657   -5.8059576    6.2032431    1.5200513 
 5730000   0.79836046  -0.17860768   0.40443739    1.1270557    -5.800459    6.2048964    1.5314931 
 5740000   0.79344664  -0.27720346   0.40578197    1.1201188   -5.7979825    6.2037644    1.5259007 
 5750000   0.79840406  -0.14228119   0.40430513    1.1271172   -5.7996894    6.2039945    1.5314224 
 5760000   0.79499903   -0.2791406   0.39461815    1.1223103    -5.808536    6.2031541    1.5169285 
 5770000   0.80005531  -0.23415347   0.39846394    1.1294483   -5.8024393    6.2009032    1.5279123 
 5780000   0.80382152  -0.26313022   0.40570885    1.1347651   -5.7990376    6.2047464     1.540474 
 5790000   0.79956362  -0.23723413   0.40036686    1.1287542      -5.7997    6.2000669    1.5291211 
 5800000   0.80495671  -0.32124179   0.38878005    1.1363677   -5.8134104    6.2021904    1.5251477 
 5810000   0.79826147  -0.23643027   0.40192547    1.1269159   -5.8035522    6.2054777    1.5288414 
 5820000   0.79713945  -0.24520766   0.40213244     1.125332   -5.8005891    6.2027216    1.5274644 
 5830000   0.79478644   -0.2615342   0.38967037    1.1220102   -5.8125488    6.2022192    1.5116806 
 5840000   0.79603283  -0.25579811   0.40261033    1.1237697   -5.8030864    6.2056967    1.5263801 
 5850000   0.80077148  -0.23948464   0.40129381    1.1304594   -5.8028084    6.2041022    1.5317532 
 5860000   0.79778816  -0.20498189   0.41603973    1.1262478   -5.7907524    6.2067921    1.5422875 
 5870000   0.79961993  -0.27504423   0.40486849    1.1288337   -5.7953276    6.2001961    1.5337022 
 5880000   0.79983572  -0.30245833   0.40306365    1.1291383   -5.8000787    6.2031424     1.532202 
 5890000   0.79984263  -0.21831845   0.39828017    1.1291481   -5.8014794    6.1997596    1.5274283 
 5900000   0.79818549  -0.27803129   0.39900775    1.1268087   -5.8067113    6.2057191    1.5258164 
 5910000   0.79520724  -0.23712312   0.40375641    1.1226042    -5.800237    6.2039935    1.5263606 
 5920000   0.79949472  -0.21680856   0.41293261    1.1286569   -5.7929966    6.2059292    1.5415895 
 5930000   0.80457428   -0.2424377   0.40193317    1.1358278   -5.8025028     6.204436     1.537761 
 5940000   0.79885437   -0.2890005   0.40423938    1.1277529   -5.7994875    6.2037269    1.5319923 
 5950000   0.81115529  -0.18355763   0.40682138    1.1451183   -5.7939356     6.200757    1.5519397 
 5960000    0.7990054  -0.15434359   0.40637933    1.1279662   -5.7943681    6.2007474    1.5343455 
 5970000   0.80528306   -0.3176146     0.402108    1.1368284   -5.8025625    6.2046705    1.5389364 
 5980000   0.80579248  -0.21254628   0.39965171    1.1375476   -5.8057246    6.2053763    1.5371993 
 5990000    0.7965183  -0.30399958   0.39978289    1.1244551   -5.8009333    6.2007162     1.524238 
 6000000   0.80013148  -0.26532375   0.40335553    1.1295558   -5.8011825    6.2045381    1.5329114 
Loop time of 55319.8 on 216 procs for 6000000 steps with 28900 atoms

Performance: 46854.832 tau/day, 108.460 timesteps/s
99.9% CPU use with 216 MPI tasks x 1 OpenMP threads

MPI task timing breakdown:
Section |  min time  |  avg time  |  max time  |%varavg| %total
---------------------------------------------------------------
Pair    | 629.54     | 765.53     | 896.49     | 206.8 |  1.38
Bond    | 12.161     | 17.113     | 21.331     |  42.6 |  0.03
Kspace  | 48678      | 48876      | 49044      |  34.8 | 88.35
Neigh   | 737.64     | 767.18     | 808.49     |  60.2 |  1.39
Comm    | 1260.4     | 1518.7     | 1762.3     | 323.6 |  2.75
Output  | 2.4388     | 2.4943     | 2.5057     |   0.4 |  0.00
Modify  | 2732.3     | 2881.2     | 3067.6     | 146.5 |  5.21
Other   |            | 491.5      |            |       |  0.89

Nlocal:    133.796 ave 212 max 102 min
Histogram: 24 54 58 27 23 12 12 2 2 2
Nghost:    975.806 ave 1127 max 822 min
Histogram: 3 12 28 26 39 29 43 18 10 8
Neighs:    5018.99 ave 11055 max 3043 min
Histogram: 51 54 47 24 19 13 4 2 1 1

Total # of neighbors = 1084101
Ave neighs/atom = 37.5121
Ave special neighs/atom = 0.602076
Neighbor list builds = 806910
Dangerous builds = 0
System init for write_restart ...
PPPM initialization ...
  using 12-bit tables for long-range coulomb (src/kspace.cpp:332)
  G vector (1/distance) = 1.14187
  grid = 90 90 90
  stencil order = 5
  estimated absolute RMS force accuracy = 8.56813e-05
  estimated relative force accuracy = 8.56813e-05
  using double precision FFTW3
  3d grid and FFT values/proc = 8000 3600
WARNING: Neighbor exclusions used with KSpace solver may give inconsistent Coulombic energies (src/neighbor.cpp:486)
Neighbor list info ...
  update every 1 steps, delay 0 steps, check yes
  max neighbors/atom: 2000, page size: 100000
  master list distance cutoff = 2.8
  ghost atom cutoff = 2.8
  binsize = 1.4, bins = 24 24 24
  12 neighbor lists, perpetual/occasional/extra = 2 10 0
  (1) pair lj/cut, perpetual
      attributes: half, newton on
      pair build: half/bin/newton
      stencil: half/bin/3d/newton
      bin: standard
  (2) pair coul/long, perpetual, skip from (1)
      attributes: half, newton on
      pair build: skip
      stencil: none
      bin: none
  (3) compute rdf, occasional, copy from (1)
      attributes: half, newton on
      pair build: copy
      stencil: none
      bin: none
  (4) compute rdf, occasional, copy from (1)
      attributes: half, newton on
      pair build: copy
      stencil: none
      bin: none
  (5) compute rdf, occasional, copy from (1)
      attributes: half, newton on
      pair build: copy
      stencil: none
      bin: none
  (6) compute rdf, occasional, copy from (1)
      attributes: half, newton on
      pair build: copy
      stencil: none
      bin: none
  (7) compute rdf, occasional, copy from (1)
      attributes: half, newton on
      pair build: copy
      stencil: none
      bin: none
  (8) compute rdf, occasional, copy from (1)
      attributes: half, newton on
      pair build: copy
      stencil: none
      bin: none
  (9) compute rdf, occasional, copy from (1)
      attributes: half, newton on
      pair build: copy
      stencil: none
      bin: none
  (10) compute rdf, occasional, copy from (1)
      attributes: half, newton on
      pair build: copy
      stencil: none
      bin: none
  (11) compute rdf, occasional, copy from (1)
      attributes: half, newton on
      pair build: copy
      stencil: none
      bin: none
  (12) compute rdf, occasional, copy from (1)
      attributes: half, newton on
      pair build: copy
      stencil: none
      bin: none
PPPM initialization ...
  using 12-bit tables for long-range coulomb (src/kspace.cpp:332)
  G vector (1/distance) = 1.14187
  grid = 90 90 90
  stencil order = 5
  estimated absolute RMS force accuracy = 8.56813e-05
  estimated relative force accuracy = 8.56813e-05
  using double precision FFTW3
  3d grid and FFT values/proc = 8000 3600
WARNING: Neighbor exclusions used with KSpace solver may give inconsistent Coulombic energies (src/neighbor.cpp:486)
Neighbor list info ...
  update every 1 steps, delay 0 steps, check yes
  max neighbors/atom: 2000, page size: 100000
  master list distance cutoff = 2.8
  ghost atom cutoff = 2.8
  binsize = 1.4, bins = 24 24 24
  12 neighbor lists, perpetual/occasional/extra = 2 10 0
  (1) pair lj/cut, perpetual
      attributes: half, newton on
      pair build: half/bin/newton
      stencil: half/bin/3d/newton
      bin: standard
  (2) pair coul/long, perpetual, skip from (1)
      attributes: half, newton on
      pair build: skip
      stencil: none
      bin: none
  (3) compute rdf, occasional, copy from (1)
      attributes: half, newton on
      pair build: copy
      stencil: none
      bin: none
  (4) compute rdf, occasional, copy from (1)
      attributes: half, newton on
      pair build: copy
      stencil: none
      bin: none
  (5) compute rdf, occasional, copy from (1)
      attributes: half, newton on
      pair build: copy
      stencil: none
      bin: none
  (6) compute rdf, occasional, copy from (1)
      attributes: half, newton on
      pair build: copy
      stencil: none
      bin: none
  (7) compute rdf, occasional, copy from (1)
      attributes: half, newton on
      pair build: copy
      stencil: none
      bin: none
  (8) compute rdf, occasional, copy from (1)
      attributes: half, newton on
      pair build: copy
      stencil: none
      bin: none
  (9) compute rdf, occasional, copy from (1)
      attributes: half, newton on
      pair build: copy
      stencil: none
      bin: none
  (10) compute rdf, occasional, copy from (1)
      attributes: half, newton on
      pair build: copy
      stencil: none
      bin: none
  (11) compute rdf, occasional, copy from (1)
      attributes: half, newton on
      pair build: copy
      stencil: none
      bin: none
  (12) compute rdf, occasional, copy from (1)
      attributes: half, newton on
      pair build: copy
      stencil: none
      bin: none
Setting up Verlet run ...
  Unit style    : lj
  Current step  : 6000000
  Time step     : 0.005
Per MPI rank memory allocation (min/avg/max) = 17.72 | 19.25 | 19.76 Mbytes
Step Lx Ly Lz Press Pxx Pyy Pzz PotEng Temp 
 6000000    32.816933    32.816933    32.816933 -0.073541941   0.44001717  -0.52539155  -0.13525145   0.40335553   0.80013148 
 6000010    33.473272    32.493606    32.493606  -0.20195356   -1.2664256   0.34865852   0.31190638   0.41583242   0.80665533 
 6000020    34.129611    32.179651    32.179651 -0.095074563   -1.3957693   0.60331367   0.50723195   0.44025465   0.82084859 
 6000030    34.785949    31.874623    31.874623  0.027833111   -1.4513276   0.74338804   0.79143892   0.46257527   0.83744613 
 6000040    35.442288    31.578109    31.578109   0.14314616   -1.4693937   0.90962197   0.98921025   0.48379163   0.85809218 
 6000050    36.098627    31.289718    31.289718   0.24095884   -1.3716689    1.0001861    1.0943594   0.51246288   0.87328195 
 6000060    36.754965    31.009087    31.009087   0.30999793   -1.3138048    1.0712333    1.1725653   0.52685897   0.89755252 
 6000070    37.411304    30.735874    30.735874   0.36326165   -1.2221225    1.0908944    1.2210131   0.55061775    0.9137918 
 6000080    38.067643    30.469758    30.469758   0.42459555   -1.1859536    1.2008442     1.258896   0.56738263   0.93301784 
 6000090    38.723981    30.210436    30.210436   0.50700156   -1.1355951    1.2733389    1.3832609   0.58961791   0.94827492 
 6000100     39.38032    29.957624    29.957624   0.55193612   -1.0448561    1.3008198    1.3998447   0.60227081   0.96892035 
Loop time of 1.09036 on 216 procs for 100 steps with 28900 atoms

Performance: 39619.953 tau/day, 91.713 timesteps/s
99.9% CPU use with 216 MPI tasks x 1 OpenMP threads

MPI task timing breakdown:
Section |  min time  |  avg time  |  max time  |%varavg| %total
---------------------------------------------------------------
Pair    | 0.0062869  | 0.012183   | 0.032847   |   4.4 |  1.12
Bond    | 2.6226e-05 | 0.0002203  | 0.00049806 |   0.0 |  0.02
Kspace  | 0.76788    | 0.79557    | 0.80822    |   0.8 | 72.96
Neigh   | 0.038777   | 0.040624   | 0.043472   |   0.5 |  3.73
Comm    | 0.031765   | 0.041204   | 0.054788   |   2.3 |  3.78
Output  | 0.0063705  | 0.0084657  | 0.011345   |   0.9 |  0.78
Modify  | 0.11054    | 0.12773    | 0.15228    |   2.1 | 11.71
Other   |            | 0.06436    |            |       |  5.90

Nlocal:    133.796 ave 207 max 90 min
Histogram: 1 22 67 48 32 23 13 5 3 2
Nghost:    983.157 ave 1157 max 843 min
Histogram: 10 16 28 40 37 32 31 13 6 3
Neighs:    5029.08 ave 10735 max 2737 min
Histogram: 13 67 53 32 23 16 7 2 2 1

Total # of neighbors = 1086281
Ave neighs/atom = 37.5876
Ave special neighs/atom = 0.602076
Neighbor list builds = 49
Dangerous builds = 0
PPPM initialization ...
  using 12-bit tables for long-range coulomb (src/kspace.cpp:332)
  G vector (1/distance) = 1.1277
  grid = 96 80 80
  stencil order = 5
  estimated absolute RMS force accuracy = 0.000109203
  estimated relative force accuracy = 0.000109203
  using double precision FFTW3
  3d grid and FFT values/proc = 7581 3360
WARNING: Neighbor exclusions used with KSpace solver may give inconsistent Coulombic energies (src/neighbor.cpp:486)
Neighbor list info ...
  update every 1 steps, delay 0 steps, check yes
  max neighbors/atom: 2000, page size: 100000
  master list distance cutoff = 2.8
  ghost atom cutoff = 2.8
  binsize = 1.4, bins = 29 22 22
  12 neighbor lists, perpetual/occasional/extra = 2 10 0
  (1) pair lj/cut, perpetual
      attributes: half, newton on
      pair build: half/bin/newton
      stencil: half/bin/3d/newton
      bin: standard
  (2) pair coul/long, perpetual, skip from (1)
      attributes: half, newton on
      pair build: skip
      stencil: none
      bin: none
  (3) compute rdf, occasional, copy from (1)
      attributes: half, newton on
      pair build: copy
      stencil: none
      bin: none
  (4) compute rdf, occasional, copy from (1)
      attributes: half, newton on
      pair build: copy
      stencil: none
      bin: none
  (5) compute rdf, occasional, copy from (1)
      attributes: half, newton on
      pair build: copy
      stencil: none
      bin: none
  (6) compute rdf, occasional, copy from (1)
      attributes: half, newton on
      pair build: copy
      stencil: none
      bin: none
  (7) compute rdf, occasional, copy from (1)
      attributes: half, newton on
      pair build: copy
      stencil: none
      bin: none
  (8) compute rdf, occasional, copy from (1)
      attributes: half, newton on
      pair build: copy
      stencil: none
      bin: none
  (9) compute rdf, occasional, copy from (1)
      attributes: half, newton on
      pair build: copy
      stencil: none
      bin: none
  (10) compute rdf, occasional, copy from (1)
      attributes: half, newton on
      pair build: copy
      stencil: none
      bin: none
  (11) compute rdf, occasional, copy from (1)
      attributes: half, newton on
      pair build: copy
      stencil: none
      bin: none
  (12) compute rdf, occasional, copy from (1)
      attributes: half, newton on
      pair build: copy
      stencil: none
      bin: none
Setting up Verlet run ...
  Unit style    : lj
  Current step  : 6000100
  Time step     : 0.005
Per MPI rank memory allocation (min/avg/max) = 17.67 | 19.21 | 19.74 Mbytes
Step Lx Ly Lz Press Pxx Pyy Pzz PotEng Temp 
 6000100     39.38032    29.957624    29.957624   0.60757834   -0.9908988     1.511508    1.3021258   0.60549156   0.96892035 
 6010000     39.38032    29.957624    29.957624  -0.20367203  -0.29645999  -0.17281168  -0.14174442   0.40607621   0.79469316 
 6020000     39.38032    29.957624    29.957624  -0.22750078  -0.21783924  -0.16213506  -0.30252804   0.40260896   0.80071133 
 6030000     39.38032    29.957624    29.957624  -0.26819737  -0.33409406  -0.25409451  -0.21640353   0.40387633   0.80212121 
 6040000     39.38032    29.957624    29.957624  -0.22668003  -0.27317395  -0.20049735  -0.20636878   0.40042248   0.80429106 
 6050000     39.38032    29.957624    29.957624  -0.27559889  -0.29236202  -0.28998524   -0.2444494   0.40698449   0.79819698 
 6060000     39.38032    29.957624    29.957624  -0.24757173  -0.26261737  -0.31553441  -0.16456342   0.40337783   0.80379392 
 6070000     39.38032    29.957624    29.957624  -0.23423724  -0.23610023  -0.21532239  -0.25128908   0.41052566   0.79894268 
 6080000     39.38032    29.957624    29.957624  -0.22860803  -0.19410931  -0.23256119   -0.2591536   0.41200077   0.79957929 
 6090000     39.38032    29.957624    29.957624  -0.27065438  -0.23201105  -0.26946964  -0.31048244   0.40365824   0.80421914 
 6100000     39.38032    29.957624    29.957624  -0.22306543  -0.25546405  -0.22883943  -0.18489281   0.40745598   0.80117378 
 6100100     39.38032    29.957624    29.957624  -0.20362915  -0.18174663   -0.2895086  -0.13963222      0.40885   0.79368962 
Loop time of 854.829 on 216 procs for 100000 steps with 28900 atoms

Performance: 50536.419 tau/day, 116.982 timesteps/s
99.9% CPU use with 216 MPI tasks x 1 OpenMP threads

MPI task timing breakdown:
Section |  min time  |  avg time  |  max time  |%varavg| %total
---------------------------------------------------------------
Pair    | 6.9545     | 12.126     | 29.927     | 132.6 |  1.42
Bond    | 0.032728   | 0.22941    | 0.50089    |  22.0 |  0.03
Kspace  | 732.41     | 756.96     | 769        |  27.5 | 88.55
Neigh   | 11.754     | 12.255     | 12.981     |   8.4 |  1.43
Comm    | 20.978     | 30.069     | 43.114     |  91.7 |  3.52
Output  | 0.038765   | 0.038825   | 0.039253   |   0.0 |  0.00
Modify  | 30.387     | 34.421     | 38.494     |  27.9 |  4.03
Other   |            | 8.734      |            |       |  1.02

Nlocal:    133.796 ave 198 max 106 min
Histogram: 38 39 43 36 24 12 14 5 3 2
Nghost:    981.116 ave 1198 max 817 min
Histogram: 5 19 29 40 51 34 27 4 5 2
Neighs:    5019.44 ave 9411 max 3039 min
Histogram: 33 48 41 28 28 10 16 8 1 3

Total # of neighbors = 1084198
Ave neighs/atom = 37.5155
Ave special neighs/atom = 0.602076
Neighbor list builds = 13441
Dangerous builds = 0
Total wall time: 18:06:26
