950
Atoms. Timestep: 0
H 1.596710 1.920290 16.552300
H 1.588450 1.936310 16.528300
H 1.428180 2.940960 16.592800
H 1.424700 2.957620 16.572300
H 1.641020 1.700330 17.743800
H 1.714280 1.419410 18.206200
H 1.580320 2.141440 17.527500
H 1.756470 1.018130 17.034400
H 1.563930 2.362590 18.502600
H 1.542220 2.369570 18.480300
H 1.699780 1.406310 18.697800
H 1.739820 1.031100 17.007300
H 1.483460 2.663590 17.526300
H 1.429970 3.084620 17.823800
H 1.384660 3.332830 18.262700
H 1.296010 3.806650 17.145000
H 1.413580 3.305770 18.798900
H 1.227090 4.296080 18.045200
H 1.235640 4.285420 18.061000
H 1.292430 3.821350 17.127500
H 1.697890 1.640560 19.181300
H 1.600980 2.075540 19.434300
H 1.792010 0.917782 19.833000
H 1.831860 0.918526 19.860100
H 1.659750 1.781520 20.388300
H 1.699690 1.784220 20.412300
H 1.547540 2.583740 19.477700
H 1.443420 3.038800 19.216700
H 1.371400 3.707050 19.970700
H 1.344620 3.708030 19.953200
H 1.495990 2.802820 20.432200
H 1.531150 2.804890 20.452800
H 1.263230 4.248960 19.095200
H 1.246200 4.254610 19.079500
H 1.306590 7.920790 14.733300
H 1.318420 7.952420 14.730700
H 1.659440 8.893780 14.709100
H 1.660710 8.929330 14.713100
H 1.478560 9.944850 14.798800
H 1.488520 9.911730 14.789100
H 0.839634 10.701900 14.951700
H 0.820787 10.726900 14.964800
H 5.653610 11.235900 14.747000
H 5.968140 10.297500 14.603300
H 4.754930 10.721900 16.135600
H 5.047010 11.448100 15.513200
H 5.365010 10.252300 15.443500
H 5.945690 11.962000 14.124600
H 5.339090 12.174200 14.890700
H 5.024570 13.112500 15.034400
H 5.631170 12.900300 14.268300
H 5.313170 14.096100 14.337900
H 4.710040 14.050800 15.178100
H 5.923250 13.626400 13.645800
H 4.125890 12.598600 16.423100
H 4.301380 11.580800 16.494200
H 4.732490 12.386400 15.656900
H 4.275470 13.502700 15.941400
H 3.963810 16.894000 20.520400
H 3.574940 14.696600 20.809600
H 5.445030 14.565600 21.506500
H 4.571460 14.460300 20.961000
H 4.342050 15.097900 21.696400
H 5.961590 14.984400 22.300000
H 2.242560 15.866400 21.734900
H 3.417570 15.473400 21.762400
H 2.722510 15.211300 21.092900
H 5.037120 15.359900 22.365900
H 4.757340 16.683400 21.151100
H 5.775530 16.672600 21.338200
H 2.263690 16.486500 22.563700
H 2.780250 16.905300 23.357200
H 3.883230 16.373100 23.167300
H 3.188170 16.111000 22.497800
H 4.112640 15.735500 22.431800
H 5.982730 15.604500 23.128700
H 4.807710 15.997500 23.101300
H 5.502780 16.259600 23.770800
H 4.650340 16.774300 24.054100
H 3.784050 17.650400 18.677700
H 4.445980 17.993500 17.959400
H 5.416000 18.185400 17.652800
H 5.505880 17.807200 18.574100
H 3.607560 17.247900 19.615100
H 4.689900 17.539700 19.086600
H 5.595760 17.429000 19.495500
H 4.779790 17.161500 20.007900
H 5.685640 17.050800 20.416800
H 3.653830 17.010700 23.902700
H 2.026330 27.640900 20.997700
H 2.028000 27.650200 21.009500
H 1.072900 27.784500 20.633200
H 1.070060 27.790600 20.630300
H 1.864640 33.034900 17.909900
H 1.838250 33.043200 17.881100
H 1.216760 28.936300 20.181200
H 1.208060 28.929000 20.177300
H 2.055650 29.479800 20.211600
H 2.039370 29.483800 20.210800
H 2.033690 28.567000 20.610100
H 2.040990 28.560300 20.604700
H 1.213750 29.845800 19.778000
H 1.231420 29.855700 19.788200
H 2.045060 30.400600 19.811500
H 2.070300 30.399200 19.818600
H 2.050740 31.317400 19.412200
H 1.092590 30.960400 19.249900
H 1.120840 30.975500 19.268800
H 2.084960 31.318600 19.425600
H 2.870680 30.038600 20.244300
H 2.894530 30.023200 20.242100
H 3.041230 31.168900 19.792900
H 3.005850 31.183100 19.788400
H 3.733420 30.566700 20.272500
H 3.701980 30.593400 20.277800
H 1.892230 32.998400 18.944200
H 1.857350 33.001700 18.915300
H 2.879870 29.103800 20.635100
H 2.864990 29.121800 20.643600
H 3.704100 28.727900 21.058600
H 3.690610 28.759800 21.076400
H 2.990460 27.984000 21.154500
H 2.986150 28.007200 21.171700
H 3.976040 29.673200 20.735800
H 3.952630 29.706500 20.749300
H 6.525530 7.743740 9.552130
H 6.486060 7.768400 9.563730
H 6.558580 8.755920 9.337140
H 6.525920 8.779690 9.345730
H 7.037390 9.671430 9.403470
H 7.012010 9.691680 9.407380
H 7.833680 10.245000 9.733340
H 7.814080 10.260000 9.732180
H 6.947110 6.906110 9.990820
H 6.903120 6.928800 10.003000
H 7.547190 7.668960 10.196200
H 7.665330 6.485850 10.545800
H 7.710350 6.467450 10.535700
H 8.610740 6.545320 11.040700
H 8.568470 6.558230 11.046700
H 8.379870 7.483680 10.718100
H 7.966280 7.431300 10.461300
H 9.407020 7.118850 11.370600
H 9.370540 7.126570 11.371500
H 8.814620 7.756990 10.878800
H 7.373870 8.069440 9.969570
H 7.358600 8.594410 9.867580
H 7.629800 9.033280 9.895240
H 9.023950 8.223840 10.911300
H 8.191270 8.409120 10.389400
H 8.222210 8.395140 10.387000
H 8.002680 9.334570 10.060800
H 8.478140 9.358980 10.312700
H 8.835350 9.149290 10.582700
H 9.070550 8.720830 10.804500
H 9.885840 8.034350 11.436900
H 9.856620 8.038560 11.433200
H 9.896480 9.049840 11.215200
H 9.918880 9.046530 11.221900
H 8.717220 10.332400 10.233100
H 8.734070 10.322800 10.238400
H 9.479430 9.889450 10.775900
H 9.497310 9.884170 10.783200
H 6.402720 10.845700 13.840100
H 11.300500 13.452700 8.902710
H 11.314600 13.450400 8.919520
H 10.846300 14.105600 9.565480
H 10.861800 14.102200 9.584220
H 10.920800 14.911300 10.227400
H 10.904700 14.913900 10.209700
H 11.459900 15.661100 10.662700
H 11.475900 15.660800 10.676800
H 6.376800 12.767600 13.287300
H 6.552300 11.749800 13.358400
H 6.745540 16.864500 21.031500
H 10.961400 15.629300 23.568100
H 10.961700 15.631800 23.572900
H 10.170300 15.502900 24.227800
H 10.171000 15.484800 24.221000
H 10.863900 14.754100 25.627200
H 10.873900 14.739900 25.617900
H 10.966500 15.135000 24.708300
H 10.972000 15.127000 24.701000
H 9.805590 15.176800 25.140200
H 9.809920 15.148500 25.131200
H 9.974830 14.710600 26.054700
H 9.965250 14.741000 26.065700
H 10.621600 14.288400 26.744100
H 10.606500 14.312200 26.756100
H 11.557500 14.005300 27.026600
H 7.227710 17.964100 18.470500
H 6.434180 18.174700 17.839800
H 9.729870 21.486200 18.581000
H 9.711300 21.461300 18.561300
H 10.237600 22.310600 18.214500
H 10.214800 22.288600 18.195400
H 7.583960 17.610200 19.375900
H 7.407480 17.207700 20.313200
H 6.501620 17.318400 19.904400
H 6.411740 17.696600 18.983000
H 9.995720 20.189500 20.078400
H 10.009600 20.212100 20.097100
H 9.646400 20.718100 19.270100
H 9.631110 20.693000 19.250500
H 11.173400 22.333300 19.026700
H 10.999300 20.883500 20.295500
H 11.291100 21.681300 19.767900
H 11.313200 21.696300 19.784700
H 10.461100 21.187100 19.509200
H 10.521600 21.591200 19.182900
H 10.753000 21.984900 18.981600
H 10.661400 20.954200 19.940900
H 11.453100 21.059300 20.542800
H 10.722000 20.103800 20.840400
H 10.707400 20.085700 20.823000
H 11.006700 22.953100 18.250800
H 11.033500 22.970400 18.268600
H 13.072500 5.966430 22.713800
H 12.842800 6.088250 23.715900
H 14.532300 6.612420 21.508800
H 13.690900 6.158290 21.905900
H 15.982800 7.783080 22.233800
H 15.371200 7.207130 21.628800
H 14.107000 6.647690 22.672400
H 13.682900 6.612670 23.577300
H 14.523000 7.137090 23.438800
H 14.947100 7.172110 22.533800
H 14.939100 7.626500 24.205200
H 15.363100 7.661520 23.300200
H 16.203300 8.185940 23.161700
H 15.973500 8.307760 24.163800
H 13.063300 6.491110 24.643700
H 13.674900 7.067060 25.248700
H 14.099000 7.102080 24.343700
H 14.513800 7.661770 25.368700
H 15.355100 8.115900 24.971600
H 12.158000 13.130400 8.411430
H 12.145500 13.130200 8.398950
H 13.154900 13.224400 8.189180
H 13.165900 13.228000 8.196110
H 12.452300 13.907900 8.947540
H 12.465100 13.909600 8.957730
H 11.817000 14.395600 9.544130
H 11.802700 14.395600 9.530800
H 12.772100 14.688900 9.504030
H 12.759100 14.685700 9.496130
H 13.420200 14.203000 8.917640
H 13.408700 14.198000 8.912870
H 14.058200 13.710300 8.329600
H 14.068300 13.717100 8.331240
H 14.623400 14.466500 8.780630
H 14.613500 14.457400 8.782590
H 13.715500 14.975700 9.461450
H 13.727300 14.982300 9.463940
H 14.682500 15.275600 9.423840
H 14.671900 15.265800 9.426780
H 16.610100 16.841800 9.519880
H 12.124000 15.174900 10.090400
H 12.109500 15.173400 10.079400
H 12.378400 16.149900 10.812000
H 13.065900 15.463500 10.044700
H 13.079200 15.468200 10.050300
H 13.372700 16.241200 10.593300
H 12.363300 16.147000 10.803100
H 14.217700 15.918700 10.089500
H 14.229700 15.927500 10.088500
H 13.386300 16.247500 10.596600
H 15.803300 16.911800 10.164900
H 12.924500 15.250000 23.618000
H 12.918700 15.222100 23.621400
H 11.969200 15.543400 23.347400
H 11.967700 15.529000 23.350900
H 11.773000 14.769200 25.181100
H 11.762600 14.767100 25.188800
H 12.558700 14.399300 25.669200
H 12.574000 14.411500 25.661100
H 12.672100 14.798500 24.744300
H 12.661300 14.780200 24.750300
H 11.865100 15.148100 24.269900
H 11.871100 15.156300 24.264200
H 13.571200 14.827800 24.307500
H 13.559900 14.793200 24.311900
H 13.736100 14.390000 25.231000
H 13.719600 14.357400 25.237300
H 11.660100 14.386200 26.107700
H 11.674900 14.382200 26.097900
H 13.354900 14.031400 26.149700
H 13.375000 14.053700 26.141100
H 12.584600 13.909200 26.794000
H 12.563500 13.902500 26.804600
H 11.576800 13.995100 27.014700
H 15.187100 18.248400 11.519100
H 15.282500 17.426600 10.896700
H 16.336900 17.741900 10.326800
H 16.028800 18.410200 11.003900
H 16.870400 18.572100 10.488700
H 16.562300 19.240400 11.165800
H 15.542800 19.156800 11.865400
H 16.254200 19.908600 11.842900
H 14.617600 20.130100 16.936600
H 14.629900 20.139200 16.934700
H 13.919300 18.541700 17.931300
H 13.929300 18.536900 17.905300
H 14.209500 18.023400 18.779200
H 14.216700 18.007600 18.747300
H 14.891500 18.740300 18.659500
H 14.884600 18.754300 18.679000
H 14.080600 19.317100 17.241800
H 14.068700 19.312800 17.256900
H 14.814200 19.399000 17.917800
H 14.823400 19.395100 17.906700
H 15.498200 20.127900 17.818900
H 15.489300 20.129900 17.817600
H 15.559700 19.485100 18.578700
H 15.566200 19.473100 18.571700
H 16.234800 20.216000 18.478500
H 16.241000 20.205900 18.483800
H 15.430100 20.782700 17.066200
H 15.418900 20.774600 17.056400
H 16.266800 21.075400 17.601100
H 16.257900 21.073600 17.584000
H 16.915800 20.938700 18.396000
H 16.909900 20.946900 18.378200
H 14.861500 17.896700 19.573400
H 14.865700 17.870900 19.542300
H 15.700500 18.195700 20.101100
H 15.702300 18.163600 20.077200
H 16.502600 18.807100 20.208700
H 15.634300 18.818300 19.324400
H 15.630100 18.840400 19.339900
H 16.501800 18.840200 20.220800
H 16.309100 19.551100 19.236600
H 16.305200 19.571300 19.239600
H 11.829300 21.377600 20.554100
H 12.104900 21.801400 20.386600
H 12.121100 22.175400 20.026500
H 11.592900 20.422200 21.300800
H 11.575600 20.409400 21.285000
H 12.871000 21.901300 20.974400
H 12.896600 21.906400 20.988400
H 12.388900 21.082000 21.355000
H 12.367500 21.074000 21.340400
H 16.611600 27.001000 6.336730
H 11.904400 23.288800 18.729000
H 11.874800 23.276900 18.712700
H 11.583000 22.479100 19.240300
H 12.616900 23.180500 19.472300
H 12.586500 23.173100 19.457300
H 12.980100 22.674500 20.299300
H 12.951200 22.669600 20.285200
H 11.965100 22.438400 19.628500
H 16.112500 27.905100 6.264810
H 16.123300 28.940000 6.293290
H 16.641200 29.828200 6.414530
H 21.722700 3.047990 11.467300
H 20.054500 2.605800 12.478000
H 20.944000 2.547050 12.931100
H 21.778100 2.768140 12.425800
H 20.742400 2.879280 11.754300
H 19.843200 2.300830 13.444500
H 20.165300 2.046100 14.394900
H 21.833500 2.488300 13.384200
H 21.888900 2.208450 14.342700
H 20.999400 2.267200 13.889500
H 20.934300 1.909850 15.074400
H 17.450300 1.345780 16.625300
H 18.266700 1.419700 15.993000
H 19.291900 1.422270 15.849000
H 20.251200 1.352800 16.231900
H 19.169000 1.287840 16.832300
H 21.944300 1.928600 15.301100
H 18.248200 1.249590 17.220400
H 18.125200 1.115150 18.203700
H 17.204400 1.076910 18.591900
H 17.061500 1.220310 17.576600
H 19.046000 1.153400 17.815500
H 19.966800 1.191650 17.427400
H 19.843900 1.057210 18.410600
H 18.923100 1.018960 18.798800
H 21.030600 1.086490 18.054500
H 20.887600 1.229890 17.039200
H 17.840900 0.954002 19.399100
H 18.800200 0.884527 19.782100
H 19.825400 0.887097 19.638100
H 20.641800 0.961022 19.005800
H 20.547500 11.114600 27.778800
H 21.786600 11.129700 27.765100
H 22.180400 10.209400 28.495800
H 21.209200 10.490800 28.273500
H 22.309700 14.571100 5.836740
H 22.303800 14.565700 5.857160
H 21.471700 14.801300 5.288070
H 21.476000 14.803700 5.268730
H 22.313500 15.563100 5.785030
H 22.313200 16.566800 5.705290
H 22.323100 16.560400 5.712910
H 22.311500 15.568900 5.771010
H 20.644900 16.497200 4.604490
H 20.866600 15.508700 4.817690
H 20.867700 15.508200 4.832820
H 20.653700 16.497100 4.613390
H 21.595400 16.034300 5.272870
H 21.589900 16.037700 5.261490
H 20.525300 15.075800 6.884460
H 21.123500 14.365700 7.342330
H 21.948500 14.126100 7.920130
H 21.959100 15.123900 7.855010
H 20.314100 16.066200 6.669200
H 21.247500 15.598800 7.337180
H 21.258100 16.596600 7.272060
H 21.969700 16.121800 7.789900
H 19.897500 14.872400 15.048900
H 19.916900 14.839700 15.060800
H 20.123500 15.598400 14.387200
H 20.113600 15.637300 14.385500
H 20.610600 16.481300 14.153000
H 20.615900 16.514300 14.161100
H 20.898900 16.285000 15.092400
H 20.890700 16.271800 15.089900
H 20.463600 14.413700 16.911500
H 20.025600 14.424600 15.973400
H 20.046400 14.408700 15.993100
H 20.477100 14.420700 16.934400
H 20.543900 15.451000 15.543700
H 20.539800 15.464000 15.536300
H 21.517600 16.883100 15.572900
H 21.824200 16.647200 16.511100
H 21.450900 15.852800 16.963600
H 21.541200 16.876600 15.579800
H 21.465000 15.826300 16.955000
H 21.182000 16.055600 16.023700
H 20.823900 15.241500 16.480600
H 20.822800 15.234700 16.467600
H 21.797700 16.673600 16.509700
H 21.170800 16.062300 16.026700
H 21.094100 14.842900 17.611600
H 21.093700 14.872600 17.632600
H 21.731000 15.643300 17.900400
H 21.748100 15.596900 17.886300
H 22.250400 16.473900 17.661800
H 22.218100 16.526300 17.666200
H 18.347700 12.614400 24.423500
H 18.743000 13.042400 25.236300
H 17.561300 13.118100 24.870300
H 19.345900 12.340100 24.412300
H 20.288500 12.368600 24.839600
H 19.713300 12.919500 25.444300
H 20.922800 12.692300 25.591000
H 17.197400 13.716200 25.633000
H 18.167800 13.593300 25.841000
H 20.372500 11.913600 27.144200
H 20.108600 13.347500 26.257100
H 21.368200 11.841100 27.200400
H 20.731100 12.673800 26.539700
H 21.945600 12.479900 26.692000
H 21.078900 13.224600 26.465200
H 21.527200 13.191300 26.127300
H 22.364000 11.768500 27.256700
H 17.987900 14.572200 27.258600
H 17.353600 14.248500 26.507100
H 18.563000 14.021300 26.653800
H 18.930400 14.600700 27.685900
H 19.928600 14.326400 27.674700
H 19.533400 13.898400 26.861900
H 19.138200 13.470400 26.049100
H 20.715000 13.822700 27.227900
H 21.605000 17.031700 5.200740
H 21.591700 17.035600 5.195760
H 22.315000 17.564600 5.639560
H 22.332800 17.557800 5.640790
H 22.342400 18.555100 5.568660
H 20.870200 17.504400 4.686240
H 20.887000 17.502900 4.688580
H 21.482200 18.260300 5.041040
H 21.505100 18.256200 5.038230
H 22.316800 18.562500 5.573830
H 22.043900 22.272700 5.986410
H 22.057900 22.282300 5.992560
H 20.546500 17.071500 6.754230
H 21.160300 17.822300 7.116760
H 21.980300 17.119600 7.724780
H 21.990900 18.117400 7.659660
H 17.486600 17.235500 9.134460
H 18.198100 17.987300 9.111890
H 18.553700 18.895800 9.458230
H 17.178500 17.903800 9.811560
H 17.712100 18.733900 9.973450
H 17.130800 20.302300 11.457500
H 17.404000 19.402200 10.650600
H 18.458400 19.717500 10.080700
H 17.937500 20.232300 10.812400
H 21.269900 17.268400 14.435800
H 21.247900 17.252000 14.420900
H 21.900400 17.697500 15.135900
H 21.864500 17.703900 15.119000
H 22.295200 17.716000 16.060400
H 22.338300 17.686700 16.073900
H 22.424700 17.284900 16.992700
H 17.200100 20.428600 19.226100
H 17.203100 20.409400 19.238100
H 17.051900 19.629100 19.901500
H 17.050700 19.657500 19.900500
H 18.594900 20.672700 27.421200
H 18.423600 21.691200 27.491800
H 19.184100 19.246200 28.693200
H 19.089200 20.190100 29.009500
H 18.873300 19.777700 27.860900
H 18.794600 20.903300 28.373500
H 18.699700 21.847200 28.689800
H 18.899400 22.077900 29.642200
H 18.994300 21.134000 29.325800
H 19.444000 19.220400 29.695000
H 19.288900 20.420700 29.961800
H 19.583400 19.707500 30.597900
H 19.565000 20.576700 31.159900
H 19.393700 21.595300 31.230500
H 19.194000 21.364600 30.278200
H 21.432500 23.349600 6.036960
H 22.304300 23.403000 5.549920
H 21.893700 23.253600 5.820360
H 21.734400 24.219100 5.646070
H 21.729500 24.224900 5.648160
H 20.862600 24.165600 6.133110
H 20.573600 25.846200 5.836470
H 20.594600 25.851300 5.838370
H 22.338100 25.958200 4.864290
H 22.316600 25.968300 4.863310
H 21.164500 25.035200 5.742220
H 22.036200 25.088600 5.255180
H 21.565300 25.196200 5.475960
H 20.892700 24.657700 5.983450
H 22.402200 24.763400 5.140670
H 21.424900 26.165500 5.305730
H 21.401100 26.167500 5.303750
H 19.986500 24.102800 6.621320
H 19.990900 24.112200 6.620150
H 20.379200 23.153300 6.659820
H 20.384200 23.147800 6.663140
H 21.142400 22.481500 6.433000
H 21.130700 22.480000 6.427850
H 21.056900 23.686400 6.155650
H 20.055800 25.090400 6.318740
H 20.069700 25.099700 6.319480
H 18.503900 26.453800 6.682920
H 17.487000 26.469700 6.489760
H 17.751300 27.431300 6.564620
H 18.702900 27.675100 6.751960
H 19.390100 26.957400 6.864430
H 19.907900 27.845600 6.985670
H 22.113900 24.582700 9.310540
H 22.115200 24.587400 9.302120
H 22.127800 23.689300 9.816990
H 22.128000 23.685400 9.826800
H 18.544600 23.047500 28.956700
H 18.405100 22.560500 28.053800
H 18.804500 23.021800 29.958500
H 19.115300 22.490200 30.790800
H 18.280000 29.354300 6.714340
H 18.015600 28.392800 6.639480
H 17.328400 29.110500 6.527010
H 17.064100 28.148900 6.452150
H 18.967200 28.636600 6.826820
H 19.918800 28.880400 7.014150
H 17.527300 30.331800 6.596050
H 18.544300 30.315800 6.789200
H 19.419600 29.784600 6.942240
H 23.501800 2.930490 12.373500
H 23.823800 2.675760 13.323900
H 22.667700 2.709390 12.878900
H 22.732700 3.066740 11.694000
H 22.924600 2.097310 15.014100
H 23.612600 2.370790 14.290400
H 22.723100 2.429540 13.837300
H 27.061800 0.977093 16.431000
H 27.068500 0.962948 16.430600
H 22.782400 11.057100 27.821400
H 23.200800 10.345700 28.386100
H 23.997000 10.863300 27.973700
H 23.141100 14.864600 6.387590
H 23.144300 14.873200 6.369530
H 23.756300 15.629100 6.724330
H 23.759300 15.617900 6.737240
H 23.981600 16.636300 6.806080
H 23.992600 16.623800 6.812420
H 23.041200 16.089200 6.225080
H 23.034800 16.098000 6.214810
H 22.779100 14.421200 8.463030
H 23.392900 15.172000 8.825570
H 22.681300 15.646900 8.307730
H 22.691900 16.644700 8.242610
H 23.625300 16.177300 8.910590
H 26.529400 12.056800 20.476300
H 26.527400 12.054300 20.463000
H 26.537500 12.026000 20.485100
H 27.506000 11.736900 20.578800
H 27.514500 11.705500 20.605700
H 27.505900 11.730500 20.585300
H 25.204700 12.966600 21.642400
H 25.195900 12.986800 21.628100
H 25.212500 12.995900 21.652700
H 25.681800 12.511800 20.847100
H 25.692100 12.487700 20.864600
H 25.690000 12.519900 20.867000
H 26.126700 12.781700 21.996900
H 26.109900 12.781900 21.978300
H 27.028500 12.552400 22.351100
H 27.023900 12.577100 22.328500
H 27.689600 12.110800 21.746000
H 27.271500 12.129000 21.478400
H 26.360300 12.520000 21.607800
H 26.785100 12.312200 21.408700
H 26.775600 12.315700 21.395800
H 27.699300 12.098000 21.752900
H 27.040800 12.567600 22.341100
H 25.206100 13.334600 22.610000
H 25.199700 13.352000 22.596900
H 25.225000 13.357100 22.622900
H 27.696800 12.584800 23.094400
H 26.785500 12.975900 23.223800
H 27.296500 12.823000 23.273600
H 27.272100 12.838400 23.261300
H 26.358100 13.043300 22.911100
H 26.382400 13.037100 22.929300
H 27.520300 13.099800 24.194100
H 27.519600 13.078800 24.217100
H 27.552200 13.078400 24.206000
H 26.117300 12.943500 22.480600
H 25.695800 13.493000 23.508300
H 25.724000 13.506700 23.517500
H 25.692300 13.509500 23.493700
H 26.542600 13.399400 24.096500
H 26.575800 13.404700 24.097000
H 26.541700 13.417200 24.078300
H 22.547600 13.327700 26.017600
H 22.941400 12.407400 26.748300
H 23.518800 13.046300 26.239900
H 23.359800 11.696000 27.313000
H 24.180600 12.422500 26.734600
H 24.355600 11.623500 27.369200
H 23.174600 18.319600 6.137740
H 23.150500 18.329800 6.141840
H 23.778600 17.612600 6.592990
H 23.759900 17.624800 6.592880
H 23.036600 17.095800 6.149080
H 23.050800 17.086500 6.152950
H 22.815900 17.877800 8.237460
H 23.414100 17.167700 8.695330
H 22.466500 17.238800 16.998500
H 27.742000 27.290200 4.153730
H 27.719200 27.314200 4.134480
H 22.874200 22.586900 5.453780
H 22.566400 23.792100 5.312870
H 23.403200 23.359400 4.977580
H 23.399100 23.338500 4.972670
H 22.885500 22.603700 5.459840
H 22.606100 24.272600 5.159030
H 23.477900 24.326000 4.671990
H 23.472500 24.347000 4.675000
H 23.089500 25.284900 4.632330
H 23.074800 25.302000 4.633170
H 26.732900 27.478000 4.402970
H 26.752200 27.447600 4.413480
H 27.444500 24.572700 7.689600
H 27.433000 24.575700 7.725090
H 22.487700 25.542100 9.155570
H 22.486100 25.537100 9.161150
H 26.014500 25.458900 8.824050
H 26.011700 25.436400 8.785540
H 27.238600 25.380600 8.647180
H 26.541700 24.871300 8.098740
H 26.535300 24.884300 8.138190
H 27.237700 25.368500 8.616850
H 26.965200 25.991100 9.350460
H 26.976100 26.011200 9.377550
H 23.145000 26.292900 9.418680
H 23.145500 26.297800 9.416600
H 25.996800 26.116500 9.565960
H 26.010200 26.145500 9.598910
H 23.197900 22.944300 11.345400
H 23.040400 23.940900 10.625700
H 23.372600 23.872500 11.007400
H 22.524800 23.085700 10.571600
H 22.522200 23.088500 10.562200
H 23.761500 24.047500 11.310300
H 23.192700 22.946100 11.338100
H 22.840200 24.244100 10.246800
H 22.834900 24.689300 9.995150
H 23.350500 25.544500 10.049200
H 23.020100 25.170500 9.916130
H 23.556000 24.796000 10.679800
H 23.552500 24.798900 10.676700
H 23.732400 25.725300 10.346000
H 24.084900 24.427300 11.437300
H 24.071600 25.651100 10.733800
H 24.977100 25.908600 11.536400
H 24.984000 25.906600 11.532700
H 24.277100 24.902700 11.364400
H 24.264800 25.353700 11.106600
H 23.912300 26.651800 10.015300
H 23.914100 26.647700 10.014100
H 24.587200 26.506300 10.787900
H 24.582700 26.509300 10.791200
H 27.661200 26.488200 9.868570
H 27.416800 27.138000 10.616900
H 27.679400 26.507400 9.886550
H 26.523400 26.760100 10.255100
H 27.388800 27.110800 10.602200
H 26.500800 26.729400 10.230900
H 23.967000 23.299100 11.940800
H 23.959500 23.300100 11.936800
H 24.617300 24.055700 12.197800
H 24.625900 24.054900 12.198400
H 24.998100 25.009300 12.049000
H 24.989800 25.010500 12.051300
H 25.808100 28.610800 5.767370
H 25.807500 28.580300 5.764290
H 26.033400 27.952600 5.000650
H 27.803300 28.637800 5.631520
H 26.954600 28.937300 6.068760
H 27.803500 28.622500 5.644130
H 27.772700 27.956400 4.898930
H 26.044200 27.919800 5.002990
H 26.805700 28.624300 5.699450
H 27.268100 28.057900 5.017240
H 26.923800 28.271100 5.323560
H 26.105700 29.252100 6.493390
H 26.117400 29.276200 6.497690
H 27.340900 29.204200 6.313720
H 27.834200 29.288700 6.389330
H 26.858800 29.755200 6.994930
H 26.878500 29.770600 6.995920
H 25.884500 31.136700 15.504400
H 25.899500 31.124800 15.487900
H 26.398000 30.224900 15.604600
H 26.385200 30.237500 15.616300
H 27.212100 29.706100 15.941400
H 27.220600 29.692400 15.938500
H 27.002900 30.910300 16.010000
H 26.994000 30.923900 16.014000
H 25.858800 32.150800 15.619800
H 25.844200 32.162900 15.635600
H 27.332300 32.573100 16.421300
H 26.275200 33.041000 15.974700
H 26.286700 33.028100 15.964800
H 27.607700 31.595700 16.415400
H 27.338100 32.558700 16.423000
H 26.723500 31.886600 16.023600
H 26.733300 31.873300 16.017600
H 27.602800 31.610400 16.411700
H 27.993400 0.955987 16.882000
H 27.994900 0.940400 16.892300
H 33.102100 7.275900 14.846900
H 32.081500 7.070580 15.042000
H 32.102000 7.081030 15.030500
H 33.083200 7.253450 14.855200
H 33.240800 9.001390 14.905800
H 33.064300 8.491150 14.915500
H 32.682100 8.174680 14.972700
H 32.172400 8.066050 15.069900
H 32.263400 9.061520 15.097800
H 32.262200 9.073450 15.098600
H 31.703500 8.246740 15.165500
H 33.155300 9.486620 14.943400
H 32.354400 10.057000 15.125600
H 32.820800 9.900170 15.031700
H 32.422300 11.065900 15.166700
H 32.445300 11.052500 15.153500
H 31.128500 7.421180 15.243800
H 31.144900 7.420030 15.232400
H 32.095600 7.932680 16.989400
H 32.095600 7.949880 16.980500
H 31.283600 9.145520 15.291300
H 31.462500 9.631890 15.280000
H 31.371500 8.636420 15.252100
H 30.479600 8.211310 15.406400
H 30.487100 8.202060 15.398400
H 30.305000 9.217580 15.484100
H 30.308700 9.229260 15.486400
H 32.417500 8.933750 16.993700
H 31.422300 10.871000 15.350300
H 31.443600 10.869600 15.340300
H 30.661500 10.202300 15.462200
H 30.647300 10.194500 15.466500
H 31.842200 9.972230 15.224500
H 29.366800 7.348710 17.419200
H 29.358200 7.353150 17.402600
H 30.334300 7.034750 17.226100
H 30.324800 7.031550 17.218300
H 31.333100 7.254800 17.065500
H 31.326800 7.243670 17.067100
H 28.685800 8.122300 17.570400
H 28.690000 8.112530 17.593000
H 28.487900 9.132900 17.677000
H 28.485000 9.121570 17.701000
H 29.468200 9.074610 17.524200
H 29.472300 9.078160 17.509200
H 30.892200 8.141230 17.206400
H 29.909100 8.188180 17.383300
H 29.907400 8.188280 17.372000
H 30.451300 9.027660 17.347300
H 30.456600 9.023420 17.341500
H 30.891700 8.133550 17.204300
H 31.434400 8.980700 17.170500
H 31.440900 8.968680 17.173800
H 32.425200 8.913940 17.006000
H 28.806900 10.105400 17.714200
H 28.817600 10.114200 17.693600
H 29.586400 10.803200 17.615900
H 29.569500 10.800500 17.629100
H 30.021500 9.913290 17.478700
H 30.010400 9.914090 17.488200
H 30.568300 11.020600 17.468500
H 30.588300 11.015300 17.464700
H 31.005800 9.858550 17.311000
H 30.993500 9.867130 17.311400
H 31.535700 10.706600 17.275500
H 31.555000 10.693700 17.280400
H 32.227400 9.924540 17.112600
H 32.212600 9.942780 17.101700
H 31.139100 14.993400 18.409300
H 31.165000 14.961400 18.454300
H 30.502300 16.561600 18.439300
H 30.480700 16.595400 18.426700
H 30.834200 16.690300 17.504800
H 30.805600 16.739100 17.491900
H 31.098700 15.775700 17.732300
H 31.127900 15.732000 17.763800
H 30.916100 14.601900 19.341400
H 30.935600 14.585200 19.391100
H 30.501200 14.704000 20.323300
H 30.489300 14.706000 20.278800
H 30.335800 15.568400 19.848500
H 30.667700 15.697200 18.914000
H 30.647500 15.722600 18.885400
H 30.322600 15.578900 19.820200
H 30.170400 16.432900 19.373800
H 30.155800 16.451700 19.361500
H 29.830900 16.308000 20.296300
H 29.838400 16.304200 20.308300
H 28.361300 11.611900 21.193900
H 27.939700 12.161400 22.221600
H 28.850900 11.770300 22.092200
H 28.848000 11.802200 22.060200
H 28.357700 11.628400 21.164700
H 28.355400 11.644600 21.163400
H 28.856700 11.778100 22.059400
H 29.506500 16.175400 21.242800
H 29.506000 16.164300 21.231000
H 29.978100 15.286100 21.001000
H 29.973200 15.277900 20.970500
H 28.852300 12.138300 23.059800
H 28.851900 12.167400 23.028900
H 28.869100 12.139300 23.029600
H 28.391700 12.615200 23.815300
H 28.365000 12.617200 23.837600
H 28.365900 12.642300 23.810000
H 27.955000 12.353400 22.685400
H 27.937900 12.372200 22.678700
H 30.362600 17.579700 17.746600
H 30.338500 17.625500 17.752500
H 29.822400 18.197400 18.444200
H 29.839500 18.161800 18.424300
H 29.172600 17.910000 20.313700
H 29.175700 17.904400 20.293300
H 29.395600 18.301500 19.381600
H 29.405100 18.280600 19.356500
H 29.673000 17.168600 19.833600
H 29.664200 17.180800 19.837600
H 30.005000 17.297400 18.899100
H 29.989100 17.324500 18.902800
H 29.212800 17.133800 20.983700
H 29.213000 17.127700 20.990600
H 28.748200 27.489900 4.293330
H 28.728100 27.505000 4.267110
H 28.467100 24.615700 7.695450
H 28.478500 24.620500 7.667740
H 29.366500 25.001900 8.039020
H 29.360500 24.993600 8.057220
H 28.204500 25.246200 8.425820
H 28.206100 25.243000 8.401350
H 28.902100 25.740200 8.919460
H 28.907900 25.742500 8.934820
H 27.942000 25.876800 9.156180
H 27.933600 25.865600 9.134960
H 29.870500 25.614800 8.703950
H 29.873800 25.608200 8.713450
H 28.629600 26.362800 9.653070
H 28.645300 26.373100 9.665180
H 29.869400 26.294700 9.488310
H 29.855600 26.294900 9.484380
H 29.325600 26.860000 10.171200
H 29.348600 26.869300 10.174200
H 28.450900 27.178000 10.587300
H 28.422700 27.158600 10.580300
H 28.683100 28.973900 5.964700
H 28.265700 28.071400 4.949320
H 29.489200 27.999400 4.765340
H 28.652400 28.307700 5.219500
H 28.800900 28.651300 5.563590
H 29.501300 27.993000 4.794870
H 29.798500 28.664800 5.495660
H 29.799400 28.664800 5.523970
H 28.338500 29.217700 6.245790
H 29.562800 29.325300 6.285270
H 29.573200 29.322900 6.262380
H 28.854700 29.797400 6.874780
H 28.873700 29.797500 6.860060
H 27.865000 29.954800 7.134530
H 27.887300 29.961400 7.128560
H 27.877400 30.632800 16.407800
H 27.873300 30.647700 16.402100
H 28.143700 29.685000 16.392500
H 28.147000 29.669800 16.400200
H 28.930400 30.179800 16.848700
H 28.928800 30.163300 16.866000
H 28.482000 31.334200 16.799800
H 28.482200 31.318200 16.813200
H 28.212600 32.281100 16.820800
H 28.211600 32.296900 16.809400
H 29.356700 31.040600 17.211000
H 29.361300 31.057900 17.187800
H 29.316000 32.066700 17.342900
H 29.321100 32.084100 17.319000
H 28.820400 32.983300 17.207100
H 28.817500 32.966500 17.226200
H 32.693900 29.286300 19.687500