LAMMPS (3 Mar 2020)
OMP_NUM_THREADS environment is not set. Defaulting to 1 thread. (src/comm.cpp:94)
  using 1 OpenMP thread(s) per MPI task
Reading restart file ...
  restart file = 3 Mar 2020, LAMMPS = 3 Mar 2020
  restoring atom style full from restart
  orthogonal box = (0.734121 0.734121 0.734121) to (33.2659 33.2659 33.2659)
  6 by 6 by 6 MPI processor grid
  restoring pair style hybrid/overlay from restart
  restoring bond style fene from restart
  27950 atoms
  8700 bonds
Finding 1-2 1-3 1-4 neighbors ...
  special bond factors lj:   0          1          1         
  special bond factors coul: 0          1          1         
  2 = max # of 1-2 neighbors
  6 = max # of special neighbors
  special bonds CPU = 2.49952 secs
  read_restart CPU = 2.6954 secs
Resetting global fix info from restart file:
  fix style: nvt, fix ID: pt
50 rigid bodies with 950 atoms
Resetting global fix info from restart file:
  fix style: rigid/nvt, fix ID: ri
System init for write_data ...
PPPM initialization ...
  using 12-bit tables for long-range coulomb (src/kspace.cpp:332)
  G vector (1/distance) = 1.11672
  grid = 81 81 81
  stencil order = 5
  estimated absolute RMS force accuracy = 0.000130558
  estimated relative force accuracy = 0.000130558
  using double precision FFTW3
  3d grid and FFT values/proc = 6859 2835
All restart file global fix info was re-assigned
Unused restart file peratom fix info:
  fix style: STORE, fix ID: par_COMPUTE_STORE
WARNING: Neighbor exclusions used with KSpace solver may give inconsistent Coulombic energies (src/neighbor.cpp:486)
Neighbor list info ...
  update every 1 steps, delay 0 steps, check yes
  max neighbors/atom: 2000, page size: 100000
  master list distance cutoff = 2.8
  ghost atom cutoff = 2.8
  binsize = 1.4, bins = 24 24 24
  2 neighbor lists, perpetual/occasional/extra = 2 0 0
  (1) pair lj/cut, perpetual
      attributes: half, newton on
      pair build: half/bin/newton
      stencil: half/bin/3d/newton
      bin: standard
  (2) pair coul/long, perpetual, skip from (1)
      attributes: half, newton on
      pair build: skip
      stencil: none
      bin: none
PPPM initialization ...
  using 12-bit tables for long-range coulomb (src/kspace.cpp:332)
  G vector (1/distance) = 1.11672
  grid = 81 81 81
  stencil order = 5
  estimated absolute RMS force accuracy = 0.000130558
  estimated relative force accuracy = 0.000130558
  using double precision FFTW3
  3d grid and FFT values/proc = 6859 2835
WARNING: Neighbor exclusions used with KSpace solver may give inconsistent Coulombic energies (src/neighbor.cpp:486)
Neighbor list info ...
  update every 1 steps, delay 0 steps, check yes
  max neighbors/atom: 2000, page size: 100000
  master list distance cutoff = 2.8
  ghost atom cutoff = 2.8
  binsize = 1.4, bins = 24 24 24
  2 neighbor lists, perpetual/occasional/extra = 2 0 0
  (1) pair lj/cut, perpetual
      attributes: half, newton on
      pair build: half/bin/newton
      stencil: half/bin/3d/newton
      bin: standard
  (2) pair coul/long, perpetual, skip from (1)
      attributes: half, newton on
      pair build: skip
      stencil: none
      bin: none
Setting up Verlet run ...
  Unit style    : lj
  Current step  : 12000000
  Time step     : 0.005
Per MPI rank memory allocation (min/avg/max) = 10.01 | 10.08 | 10.2 Mbytes
Step Temp Press Volume 
12000000   0.78655152  -0.32764827    34428.857 
12010000   0.79765021  -0.12807678    34428.857 
12020000    0.8129721  -0.08391546    34428.857 
12030000   0.80372913  -0.17970361    34428.857 
12040000   0.79846659   -0.1474645    34428.857 
12050000   0.79710096  -0.15913462    34428.857 
12060000   0.79239777  -0.15606742    34428.857 
12070000   0.79474549  -0.15882998    34428.857 
12080000   0.80200817  -0.16096831    34428.857 
12090000   0.80193753  -0.15405589    34428.857 
12100000   0.80353433 -0.045296505    34428.857 
12110000   0.79652473  -0.12762434    34428.857 
12120000   0.80108791  -0.19877136    34428.857 
12130000   0.80964252  -0.14959599    34428.857 
12140000   0.79763499  -0.14139089    34428.857 
12150000   0.80524964  -0.21366354    34428.857 
12160000    0.8005796   -0.1356304    34428.857 
12170000   0.80522859 -0.088316771    34428.857 
12180000   0.80877883 -0.082225203    34428.857 
12190000   0.79817998  -0.10288239    34428.857 
12200000   0.80602263   -0.1024926    34428.857 
12210000   0.80482543  -0.11526879    34428.857 
12220000   0.80166046  -0.19422087    34428.857 
12230000   0.80126104 -0.049086679    34428.857 
12240000   0.80058645  -0.15912921    34428.857 
12250000    0.7998523 -0.096943739    34428.857 
12260000   0.80551543 -0.085686456    34428.857 
12270000   0.79755882 -0.097051291    34428.857 
12280000   0.79873845  -0.14499303    34428.857 
12290000   0.79986635  -0.13922873    34428.857 
12300000   0.79771418   -0.1067102    34428.857 
12310000   0.80066323  -0.11476732    34428.857 
12320000    0.8023779 -0.069948662    34428.857 
12330000   0.79566579  -0.11215838    34428.857 
12340000   0.79907625  -0.12233754    34428.857 
12350000    0.8107015  -0.14732624    34428.857 
12360000   0.80554823  -0.15692163    34428.857 
12370000   0.80228424  -0.13133166    34428.857 
12380000   0.80598045  0.011464865    34428.857 
12390000   0.79397749  -0.18549405    34428.857 
12400000    0.7995192  -0.10968173    34428.857 
12410000   0.79411027 -0.097249211    34428.857 
12420000   0.79557676  -0.11087871    34428.857 
12430000   0.79328836  -0.17762625    34428.857 
12440000   0.79823874  -0.15287688    34428.857 
12450000   0.79662699  -0.13132917    34428.857 
12460000   0.80842388   -0.1027562    34428.857 
12470000   0.79973725   -0.1187672    34428.857 
12480000   0.79699906 -0.089535134    34428.857 
12490000   0.80737896  -0.18968995    34428.857 
12500000   0.80256632  -0.15066882    34428.857 
12510000   0.81002791  -0.13140933    34428.857 
12520000   0.80033283 -0.099946952    34428.857 
12530000   0.79909456  -0.14042918    34428.857 
12540000   0.80239114   -0.0210615    34428.857 
12550000     0.806834 -0.099379004    34428.857 
12560000   0.79597158 -0.099449691    34428.857 
12570000   0.79854241  -0.11687086    34428.857 
12580000   0.80607871  -0.11019189    34428.857 
12590000   0.79729364  -0.15607906    34428.857 
12600000   0.80276349 -0.080613245    34428.857 
12610000     0.801682 -0.089730436    34428.857 
12620000   0.80857065 -0.074884569    34428.857 
12630000   0.79826786  -0.12108511    34428.857 
12640000   0.80398098  -0.11341087    34428.857 
12650000   0.79617642  -0.14477219    34428.857 
12660000   0.80033589  -0.10783033    34428.857 
12670000   0.79931642  -0.12472534    34428.857 
12680000   0.80271586 -0.095539252    34428.857 
12690000   0.79358255  -0.19329661    34428.857 
12700000   0.79473263  -0.13637958    34428.857 
12710000   0.79273318 -0.079236107    34428.857 
12720000   0.79742726  -0.13611013    34428.857 
12730000   0.80216332 -0.088150221    34428.857 
12740000   0.80185051  -0.19045327    34428.857 
12750000   0.79263654  -0.10993098    34428.857 
12760000   0.79168688  -0.16184881    34428.857 
12770000   0.80004202  -0.11526586    34428.857 
12780000   0.80229919  -0.15255244    34428.857 
12790000   0.79506789 -0.070657721    34428.857 
12800000   0.80499883  -0.11337734    34428.857 
12810000   0.79931062  -0.11499719    34428.857 
12820000   0.80075896 -0.057594826    34428.857 
12830000   0.80086832  -0.12654797    34428.857 
12840000    0.7959713  -0.10562936    34428.857 
12850000   0.80350822 -0.065061356    34428.857 
12860000   0.80605235   -0.1975888    34428.857 
12870000   0.80171145  -0.12762793    34428.857 
12880000   0.80672967  -0.16877221    34428.857 
12890000   0.80146349 -0.051120155    34428.857 
12900000   0.79366034  -0.18079952    34428.857 
12910000   0.79944671 -0.082379861    34428.857 
12920000   0.79284644 -0.094361519    34428.857 
12930000   0.79914089  -0.13782371    34428.857 
12940000   0.79168533  -0.12762806    34428.857 
12950000   0.79819961  -0.10536414    34428.857 
12960000   0.79791982  -0.11628548    34428.857 
12970000   0.79669818   -0.1351875    34428.857 
12980000   0.80131204  -0.14081084    34428.857 
12990000   0.79344695  -0.15206071    34428.857 
13000000   0.80539023  -0.15045883    34428.857 
Loop time of 7957.75 on 216 procs for 1000000 steps with 27950 atoms

Performance: 54286.700 tau/day, 125.664 timesteps/s
99.8% CPU use with 216 MPI tasks x 1 OpenMP threads

MPI task timing breakdown:
Section |  min time  |  avg time  |  max time  |%varavg| %total
---------------------------------------------------------------
Pair    | 79.193     | 113.75     | 199.71     | 212.2 |  1.43
Bond    | 0.69268    | 1.795      | 3.843      |  45.2 |  0.02
Kspace  | 6857.5     | 7026.6     | 7139.7     |  64.9 | 88.30
Neigh   | 121.34     | 127.08     | 134.39     |  22.5 |  1.60
Comm    | 229.62     | 307.11     | 462.5      | 238.7 |  3.86
Output  | 0.011463   | 0.014621   | 0.025487   |   1.2 |  0.00
Modify  | 228.77     | 288.88     | 342.1      | 152.6 |  3.63
Other   |            | 92.5       |            |       |  1.16

Nlocal:    129.398 ave 187 max 107 min
Histogram: 21 63 60 27 20 6 8 6 2 3
Nghost:    959.611 ave 1135 max 843 min
Histogram: 6 45 38 36 26 21 20 12 9 3
Neighs:    4806 ave 9653 max 3418 min
Histogram: 54 74 35 23 11 6 4 8 0 1

Total # of neighbors = 1038095
Ave neighs/atom = 37.1411
Ave special neighs/atom = 0.62254
Neighbor list builds = 134471
Dangerous builds = 0
PPPM initialization ...
  using 12-bit tables for long-range coulomb (src/kspace.cpp:332)
  G vector (1/distance) = 1.11672
  grid = 81 81 81
  stencil order = 5
  estimated absolute RMS force accuracy = 0.000130558
  estimated relative force accuracy = 0.000130558
  using double precision FFTW3
  3d grid and FFT values/proc = 6859 2835
WARNING: Neighbor exclusions used with KSpace solver may give inconsistent Coulombic energies (src/neighbor.cpp:486)
Neighbor list info ...
  update every 1 steps, delay 0 steps, check yes
  max neighbors/atom: 2000, page size: 100000
  master list distance cutoff = 2.8
  ghost atom cutoff = 2.8
  binsize = 1.4, bins = 24 24 24
  12 neighbor lists, perpetual/occasional/extra = 2 10 0
  (1) pair lj/cut, perpetual
      attributes: half, newton on
      pair build: half/bin/newton
      stencil: half/bin/3d/newton
      bin: standard
  (2) pair coul/long, perpetual, skip from (1)
      attributes: half, newton on
      pair build: skip
      stencil: none
      bin: none
  (3) compute rdf, occasional, copy from (1)
      attributes: half, newton on
      pair build: copy
      stencil: none
      bin: none
  (4) compute rdf, occasional, copy from (1)
      attributes: half, newton on
      pair build: copy
      stencil: none
      bin: none
  (5) compute rdf, occasional, copy from (1)
      attributes: half, newton on
      pair build: copy
      stencil: none
      bin: none
  (6) compute rdf, occasional, copy from (1)
      attributes: half, newton on
      pair build: copy
      stencil: none
      bin: none
  (7) compute rdf, occasional, copy from (1)
      attributes: half, newton on
      pair build: copy
      stencil: none
      bin: none
  (8) compute rdf, occasional, copy from (1)
      attributes: half, newton on
      pair build: copy
      stencil: none
      bin: none
  (9) compute rdf, occasional, copy from (1)
      attributes: half, newton on
      pair build: copy
      stencil: none
      bin: none
  (10) compute rdf, occasional, copy from (1)
      attributes: half, newton on
      pair build: copy
      stencil: none
      bin: none
  (11) compute rdf, occasional, copy from (1)
      attributes: half, newton on
      pair build: copy
      stencil: none
      bin: none
  (12) compute rdf, occasional, copy from (1)
      attributes: half, newton on
      pair build: copy
      stencil: none
      bin: none
Setting up Verlet run ...
  Unit style    : lj
  Current step  : 0
  Time step     : 0.005
WARNING: One or more chunks do not contain all atoms in molecule (src/compute_chunk_atom.cpp:1163)
Per MPI rank memory allocation (min/avg/max) = 17.72 | 19.06 | 19.75 Mbytes
Step Temp Press PotEng KinEng E_pair E_bond TotEng 
       0   0.80539023  0.098217172   0.69582074    1.1713025   -5.7215473     6.417368    1.8671232 
   10000    0.8037583   -0.1646185    0.6939683    1.1689291   -5.7192689    6.4132372    1.8628974 
   20000   0.80282917 -0.078954094   0.69498976    1.1675779   -5.7212291    6.4162189    1.8625676 
   30000   0.79975272 -0.084706173   0.70462127    1.1631037   -5.7099572    6.4145785     1.867725 
   40000   0.80310278 -0.089073385   0.69508061    1.1679758   -5.7209302    6.4160108    1.8630564 
   50000   0.80485373  -0.14361556    0.7015555    1.1705222   -5.7176764    6.4192319    1.8720777 
   60000   0.80214039  -0.14956366   0.69925703    1.1665762   -5.7163609    6.4156179    1.8658332 
   70000   0.79789112  -0.12991144   0.69704623    1.1603963   -5.7183424    6.4153887    1.8574426 
   80000    0.8014366  -0.05371232   0.70070413    1.1655526   -5.7156332    6.4163373    1.8662568 
   90000   0.81026105  -0.11997735   0.69413783    1.1783863   -5.7211064    6.4152442    1.8725241 
  100000   0.80485746  -0.10948423   0.70557189    1.1705277   -5.7086063    6.4141782    1.8760996 
  110000   0.80148164   -0.1234781   0.69629508    1.1656181   -5.7199513    6.4162464    1.8619132 
  120000    0.7932966  -0.15450027   0.69355277    1.1537144   -5.7241056    6.4176583    1.8472672 
  130000   0.79399995  -0.11909543     0.699786    1.1547373   -5.7154702    6.4152562    1.8545233 
  140000   0.79843702  -0.16926198   0.69838573    1.1611902   -5.7187523     6.417138     1.859576 
  150000   0.79536405  -0.13428229   0.70034424    1.1567211   -5.7159229    6.4162671    1.8570654 
  160000   0.79899558  -0.12203364   0.70042311    1.1620026   -5.7148645    6.4152876    1.8624257 
  170000   0.80616196  -0.10018671   0.69297795    1.1724248   -5.7224251     6.415403    1.8654028 
  180000   0.79407788  -0.17891322   0.69116588    1.1548506   -5.7244755    6.4156414    1.8460165 
  190000   0.80261743  -0.15331654   0.69724392    1.1672699   -5.7190124    6.4162564    1.8645139 
  200000   0.79879821 -0.092350087   0.69054235    1.1617155   -5.7226188    6.4131611    1.8522579 
  210000   0.79665922  -0.08578214   0.69952834    1.1586047   -5.7164993    6.4160276    1.8581331 
  220000   0.80233266   -0.2343215   0.69044309    1.1668558   -5.7298437    6.4202868    1.8572989 
  230000   0.79148957  -0.17455291   0.69390645    1.1510864   -5.7200794    6.4139858    1.8449928 
  240000   0.80411518  -0.07011171   0.69584501    1.1694482   -5.7209629    6.4168079    1.8652932 
  250000   0.80547787  -0.15311354    0.6945979      1.17143   -5.7200387    6.4146366    1.8660279 
  260000   0.79752765  -0.11608249   0.70102402    1.1598677   -5.7165458    6.4175699    1.8608917 
  270000   0.80083795  -0.14698052   0.69874226     1.164682   -5.7192168     6.417959    1.8634242 
  280000   0.79864696  -0.16452256   0.68836885    1.1614956   -5.7286757    6.4170445    1.8498644 
  290000   0.79949374 -0.082424748   0.68759258    1.1627271   -5.7272472    6.4148398    1.8503196 
  300000   0.79823809 -0.053069292    0.6982861    1.1609009   -5.7132335    6.4115196     1.859187 
  310000   0.79767977 -0.088508171   0.70460138     1.160089   -5.7149243    6.4195257    1.8646903 
  320000   0.79727172  -0.13588982   0.69675545    1.1594955   -5.7178655    6.4146209     1.856251 
  330000   0.79209355  -0.10052564   0.69977706    1.1519647    -5.717725    6.4175021    1.8517418 
  340000   0.80252625  -0.12149943   0.69852707    1.1671373   -5.7148811    6.4134082    1.8656644 
  350000   0.79772655  -0.15799057   0.69498724     1.160157   -5.7234568    6.4184441    1.8551442 
  360000   0.80040614 -0.036861402    0.7006261     1.164054   -5.7147994    6.4154255    1.8646801 
  370000   0.79315647  -0.16522791   0.69833221    1.1535106   -5.7189282    6.4172604    1.8518428 
  380000   0.79946671  -0.15001876   0.69351308    1.1626878   -5.7201893    6.4137023    1.8562008 
  390000   0.79877917 -0.097769326   0.69682897    1.1616878   -5.7169022    6.4137312    1.8585168 
  400000    0.8028362  -0.10311062   0.69656622    1.1675881   -5.7188887    6.4154549    1.8641543 
  410000   0.80267078   -0.1382314   0.69695574    1.1673475   -5.7186671    6.4156228    1.8643033 
  420000   0.79715491  -0.16473654   0.68949697    1.1593256   -5.7253922    6.4148892    1.8488226 
  430000   0.80785911 -0.048522117   0.70552675    1.1748931   -5.7128175    6.4183443    1.8804198 
  440000   0.80360382  -0.13653822   0.69821996    1.1687045   -5.7178388    6.4160587    1.8669244 
  450000   0.79804037 -0.090156273   0.70067313    1.1606134   -5.7136635    6.4143367    1.8612865 
  460000   0.80098371  -0.14148185   0.69267504     1.164894   -5.7227956    6.4154707     1.857569 
  470000   0.79773451  -0.10675529   0.69017121    1.1601686   -5.7265101    6.4166813    1.8503398 
  480000   0.79665547  -0.18730598   0.69269967    1.1585993   -5.7225362    6.4152359    1.8512989 
  490000   0.79074467 -0.097102241   0.69658086     1.150003   -5.7198738    6.4164547    1.8465839 
  500000   0.79617116  -0.10733794   0.70333071    1.1578949   -5.7100676    6.4133983    1.8612256 
  510000    0.7991203  -0.19405699   0.69149953    1.1621839   -5.7269374    6.4184369    1.8536835 
  520000   0.79697292  -0.10548058   0.69361362     1.159061    -5.720774    6.4143876    1.8526746 
  530000   0.80079195  -0.17440829   0.69294701    1.1646151   -5.7202878    6.4132349    1.8575621 
  540000   0.80434206  -0.13857187   0.70093889    1.1697781   -5.7174355    6.4183744     1.870717 
  550000   0.79411507  -0.06181489   0.70760591    1.1549047   -5.7085659    6.4161718    1.8625106 
  560000   0.80046786   -0.1983767   0.69483076    1.1641437   -5.7229308    6.4177615    1.8589745 
  570000   0.79977088  -0.06738477   0.70520588    1.1631301   -5.7085147    6.4137206     1.868336 
  580000   0.80362488 -0.091577704   0.69579715    1.1687351   -5.7190101    6.4148073    1.8645322 
  590000   0.79430273 -0.082745122   0.69728129    1.1551776   -5.7182097     6.415491    1.8524589 
  600000   0.80198191 -0.088165955   0.70417854    1.1663457   -5.7138672    6.4180457    1.8705242 
  610000   0.79987053  -0.19934825   0.69112036     1.163275   -5.7242693    6.4153897    1.8543954 
  620000   0.79903726  -0.10660975   0.68429285    1.1620632    -5.731715    6.4160078     1.846356 
  630000   0.79910577  -0.14799049   0.69526963    1.1621628   -5.7171351    6.4124047    1.8574324 
  640000   0.80020086  -0.12912706   0.69221919    1.1637554   -5.7236712    6.4158904    1.8559746 
  650000   0.79761263 -0.039268492   0.69762408    1.1599913   -5.7184955    6.4161195    1.8576154 
  660000   0.79602593  -0.14861639   0.68633209    1.1576837   -5.7300368    6.4163689    1.8440158 
  670000   0.79355638  -0.07933186   0.69811181    1.1540922   -5.7169601     6.415072     1.852204 
  680000   0.79763109  -0.11732854   0.69640596    1.1600182   -5.7219282    6.4183341    1.8564241 
  690000   0.79987616  -0.12145255   0.68923992    1.1632832   -5.7257492    6.4149891    1.8525231 
  700000   0.79764718  -0.17306222   0.69406566    1.1600415   -5.7241433    6.4182089    1.8541072 
  710000   0.80735871  -0.15464541   0.69979031    1.1741653    -5.715902    6.4156923    1.8739556 
  720000   0.80381648  -0.10548596   0.69567612    1.1690138   -5.7204585    6.4161347    1.8646899 
  730000   0.80321937  -0.13182565   0.69428542    1.1681454   -5.7189958    6.4132812    1.8624308 
  740000   0.80020274  -0.11952718   0.69839825    1.1637582   -5.7185004    6.4168987    1.8621564 
  750000    0.8026457  -0.13385717   0.69290173    1.1673111   -5.7188964    6.4117982    1.8602128 
  760000   0.79882005  -0.15976779   0.69605539    1.1617473   -5.7171628    6.4132182    1.8578027 
  770000   0.79625206  -0.15212297   0.69229872    1.1580126   -5.7228642    6.4151629    1.8503113 
  780000   0.79312735  -0.22376472   0.67787308    1.1534682     -5.73475    6.4126231    1.8313413 
  790000   0.80494593 -0.048541098   0.70152889    1.1706563   -5.7123494    6.4138782    1.8721852 
  800000   0.80286065 -0.067348397    0.7019168    1.1676237    -5.708596    6.4105128    1.8695405 
  810000   0.80182866  -0.16982446   0.69650269    1.1661228   -5.7187451    6.4152478    1.8626255 
  820000   0.80093677  -0.10657217   0.69806178    1.1648257    -5.714287    6.4123488    1.8628875 
  830000   0.80080293 -0.081997779   0.70015828    1.1646311   -5.7151437     6.415302    1.8647893 
  840000   0.79626154  -0.16941144   0.69297046    1.1580264   -5.7196503    6.4126208    1.8509968 
  850000   0.79797739  -0.16631177   0.69554727    1.1605218   -5.7220445    6.4175918    1.8560691 
  860000   0.79907308  -0.17342618   0.69671602    1.1621153   -5.7205616    6.4172777    1.8588313 
  870000   0.79364903  -0.16225347   0.69825471    1.1542269   -5.7189813     6.417236    1.8524816 
  880000    0.8010956  -0.12818954   0.69456296    1.1650567   -5.7240645    6.4186274    1.8596196 
  890000    0.7921438  -0.10568189    0.6964178    1.1520378   -5.7161217    6.4125395    1.8484556 
  900000   0.79362172  -0.16752666   0.70094751    1.1541872   -5.7176298    6.4185773    1.8551347 
  910000   0.80725295 -0.028171194   0.69734052    1.1740115   -5.7167046    6.4140451     1.871352 
  920000   0.80519874 -0.084507633   0.70002048     1.171024   -5.7165136    6.4165341    1.8710445 
  930000   0.80050681  -0.15887998   0.68325865    1.1642004   -5.7321747    6.4154333     1.847459 
  940000   0.79693358  -0.09439567    0.6923364    1.1590037   -5.7229702    6.4153066    1.8513401 
  950000   0.81049618  -0.10743167   0.69671648    1.1787282   -5.7203629    6.4170794    1.8754447 
  960000    0.8012912  -0.05023296    0.7002005    1.1653412   -5.7132906    6.4134911    1.8655417 
  970000   0.80192541  -0.16291899   0.69140037    1.1662635   -5.7267457    6.4181461    1.8576639 
  980000   0.80115621  -0.17836628   0.68633088    1.1651448   -5.7274789    6.4138098    1.8514757 
  990000   0.79861884  -0.13809705   0.69692504    1.1614547    -5.716951    6.4138761    1.8583797 
 1000000   0.79769397 -0.096525224   0.69628211    1.1601096   -5.7187531    6.4150352    1.8563917 
 1010000   0.81029167 -0.098192596   0.70311407    1.1784308   -5.7142223    6.4173364    1.8815449 
 1020000   0.80064165  -0.11354858    0.6819684    1.1643965   -5.7333085    6.4152769    1.8463649 
 1030000   0.80418278  -0.14945623   0.68736375    1.1695465   -5.7274025    6.4147663    1.8569102 
 1040000   0.80637231 -0.093837332   0.69145904    1.1727308   -5.7254713    6.4169303    1.8641898 
 1050000    0.7963003  -0.12137773   0.68949418    1.1580827    -5.725689    6.4151832    1.8475769 
 1060000   0.80384191  -0.11318139    0.6947357    1.1690507   -5.7201174    6.4148531    1.8637864 
 1070000   0.79599592  -0.18802607    0.6914971    1.1576401    -5.728373    6.4198701    1.8491372 
 1080000   0.80513298  -0.15779132    0.6920704    1.1709284   -5.7226945    6.4147649    1.8629988 
 1090000    0.8041668 -0.078349788   0.70325474    1.1695232   -5.7182232    6.4214779     1.872778 
 1100000   0.80039791  -0.12261711   0.69002004     1.164042   -5.7270675    6.4170875    1.8540621 
 1110000   0.80709387  -0.03591517    0.7002529    1.1737801    -5.715301    6.4155539     1.874033 
 1120000   0.79742919   -0.1103914   0.69276896    1.1597245   -5.7204034    6.4131724    1.8524935 
 1130000   0.79891644 -0.047774512   0.69768948    1.1618875   -5.7202119    6.4179014    1.8595769 
 1140000    0.8108833 -0.042464608   0.70321807    1.1792912   -5.7164232    6.4196413    1.8825093 
 1150000   0.79966745  -0.13699593   0.68815248    1.1629797   -5.7265421    6.4146946    1.8511322 
 1160000   0.80216923 -0.063761055   0.69534067    1.1666181   -5.7192996    6.4146403    1.8619588 
 1170000   0.80075637  -0.13517206   0.69564689    1.1645633   -5.7207005    6.4163474    1.8602102 
 1180000    0.7976521 -0.076014205   0.69208375    1.1600487   -5.7193682    6.4114519    1.8521325 
 1190000   0.80728329 -0.049012826   0.70393818    1.1740556   -5.7141405    6.4180787    1.8779938 
 1200000   0.80731658  -0.10724442   0.69657871     1.174104   -5.7170103     6.413589    1.8706827 
 1210000   0.79607854  -0.12051505   0.69582859    1.1577602   -5.7241001    6.4199287    1.8535888 
 1220000    0.8020867   -0.1508816   0.69362088    1.1664981   -5.7205993    6.4142202     1.860119 
 1230000   0.79620294  -0.10836695   0.69671522    1.1579412   -5.7197966    6.4165118    1.8546564 
 1240000     0.799955  -0.12714515   0.69725655    1.1633979   -5.7183587    6.4156152    1.8606544 
 1250000   0.80008152  -0.17812609    0.6967985    1.1635819   -5.7213197    6.4181182    1.8603804 
 1260000    0.7974389   -0.1184039   0.69740518    1.1597386   -5.7201427    6.4175479    1.8571438 
 1270000   0.79217469 -0.056393624   0.68734191    1.1520828   -5.7269556    6.4142975    1.8394247 
 1280000   0.80135669   -0.1331202   0.69431171    1.1654364   -5.7208905    6.4152022    1.8597481 
 1290000   0.80034218 -0.066001503   0.69562871     1.163961   -5.7196726    6.4153014    1.8595897 
 1300000   0.80474646 -0.037390263   0.69571551    1.1703662   -5.7193851    6.4151006    1.8660818 
 1310000   0.80217665  -0.15522836   0.69575443    1.1666289   -5.7172235    6.4129779    1.8623833 
 1320000    0.7983652  -0.16273841   0.69817119    1.1610858   -5.7159187    6.4140899     1.859257 
 1330000   0.79623879 -0.061479591    0.6960362    1.1579933   -5.7180257    6.4140619    1.8540295 
 1340000   0.79606637 -0.085416797   0.70013652    1.1577425   -5.7153592    6.4154957     1.857879 
 1350000    0.7942659  -0.14364572   0.68940392    1.1551241   -5.7264705    6.4158744     1.844528 
 1360000   0.80429983  -0.14475844   0.69081553    1.1697167   -5.7256319    6.4164475    1.8605322 
 1370000    0.8000459  -0.14319261   0.68991504    1.1635301   -5.7259415    6.4158565    1.8534451 
 1380000   0.80062105  -0.15027494   0.68132739    1.1643665   -5.7310291    6.4123565    1.8456939 
 1390000   0.79278788  -0.14456199   0.69068408    1.1529745    -5.721946    6.4126301    1.8436586 
 1400000   0.80174748  -0.16814028   0.68563967    1.1660047   -5.7282134    6.4138531    1.8516444 
 1410000    0.8067959  -0.16497759    0.6817332    1.1733468   -5.7331005    6.4148337      1.85508 
 1420000   0.80554801  -0.11400892   0.69543207     1.171532   -5.7220457    6.4174777     1.866964 
 1430000   0.80222672  -0.12717547   0.69477605    1.1667017   -5.7209835    6.4157595    1.8614778 
 1440000   0.79602034 -0.098531924   0.70017539    1.1576756   -5.7164417    6.4166171     1.857851 
 1450000   0.79911914  -0.12450144   0.69600723    1.1621823   -5.7202233    6.4162306    1.8581895 
 1460000   0.80008585  -0.10049968   0.68749685    1.1635882   -5.7285258    6.4160226     1.851085 
 1470000   0.80777818  -0.12881013   0.69204192    1.1747754    -5.723507    6.4155489    1.8668173 
 1480000    0.8004067  -0.18296194   0.68170735    1.1640548   -5.7326257     6.414333    1.8457622 
 1490000    0.7962266  -0.11624273   0.69707503    1.1579756   -5.7208891    6.4179641    1.8550506 
 1500000   0.80255331 -0.098082077   0.69582614    1.1671767   -5.7176966    6.4135228    1.8630028 
 1510000   0.79907276  -0.10009208   0.70475223    1.1621148   -5.7147891    6.4195413     1.866867 
 1520000   0.79780384  -0.14222683   0.68939701    1.1602694   -5.7247268    6.4141238    1.8496664 
 1530000   0.80768704 -0.076298417   0.69296021    1.1746428   -5.7218286    6.4147888     1.867603 
 1540000   0.80126058  -0.10358654   0.69034305    1.1652966   -5.7246632    6.4150063    1.8556397 
 1550000   0.80408346  -0.10364658   0.70185163     1.169402   -5.7152763     6.417128    1.8712537 
 1560000   0.79249927 -0.041236037   0.69182066    1.1525548   -5.7232173    6.4150379    1.8443755 
 1570000   0.79841932  -0.14903134   0.68358349    1.1611645   -5.7307901    6.4143736     1.844748 
 1580000   0.80245533 -0.090258426   0.69622466    1.1670342   -5.7204403     6.416665    1.8632588 
 1590000   0.80281929  -0.16713391   0.68971593    1.1675635   -5.7220199    6.4117358    1.8572794 
 1600000   0.79893989   -0.1382732   0.68630784    1.1619216   -5.7268304    6.4131382    1.8482294 
 1610000   0.79579697  -0.10765322   0.69204456    1.1573507   -5.7228079    6.4148524    1.8493953 
 1620000   0.79817373  -0.12067192   0.69982374    1.1608073   -5.7142302     6.414054    1.8606311 
 1630000   0.80380606  -0.08791603   0.69409076    1.1689986   -5.7202224    6.4143132    1.8630894 
 1640000   0.80387998   -0.1684255    0.6830412    1.1691061   -5.7302225    6.4132637    1.8521473 
 1650000   0.79859634  -0.10082476   0.69444396    1.1614219   -5.7205616    6.4150055    1.8558659 
 1660000   0.80574623  -0.12184913   0.69567393    1.1718202   -5.7202089    6.4158828    1.8674942 
 1670000   0.79639665  -0.14669324   0.69427938    1.1582229     -5.72411    6.4183893    1.8525023 
 1680000   0.80209713  -0.02131308   0.69950206    1.1665132   -5.7149376    6.4144397    1.8660153 
 1690000   0.79704012  -0.11046252   0.70097246    1.1591587   -5.7155451    6.4165176    1.8601312 
 1700000   0.80311152   -0.1129346   0.68772461    1.1679885   -5.7262566    6.4139812    1.8557131 
 1710000   0.79563415  -0.17754822   0.68807932    1.1571139   -5.7272759    6.4153552    1.8451933 
 1720000   0.79314222  -0.13201863   0.69337034    1.1534899   -5.7221986     6.415569    1.8468602 
 1730000   0.79811593  -0.13027697    0.6896922    1.1607233   -5.7250062    6.4146984    1.8504155 
 1740000   0.80090335  -0.11985931   0.69490763    1.1647771   -5.7188897    6.4137974    1.8596847 
 1750000   0.79919128  -0.04776692   0.69921973    1.1622872   -5.7168622    6.4160819    1.8615069 
 1760000   0.80333126  -0.17922478   0.68779186    1.1683081   -5.7248339    6.4126258    1.8560999 
 1770000   0.80134965  -0.16278036    0.6932985    1.1654262    -5.721972    6.4152705    1.8587247 
 1780000   0.80550888  -0.11371372    0.6909436    1.1714751   -5.7225408    6.4134844    1.8624187 
 1790000   0.79828905 -0.097514142   0.69766194     1.160975   -5.7187412    6.4164031     1.858637 
 1800000   0.79435192 -0.078113386   0.69277282    1.1552492   -5.7216236    6.4143964     1.848022 
 1810000   0.79783012  -0.16749547   0.68885621    1.1603076   -5.7251307    6.4139869    1.8491638 
 1820000   0.80193834 -0.048722751   0.69656882    1.1662823   -5.7202755    6.4168443    1.8628511 
 1830000   0.80559538 -0.068817557   0.69398711    1.1716009   -5.7192886    6.4132757     1.865588 
 1840000   0.79940572  -0.14805184   0.68949829     1.162599   -5.7237957     6.413294    1.8520973 
 1850000   0.80372356  -0.10921477   0.69507435    1.1688786   -5.7181734    6.4132478     1.863953 
 1860000   0.80330045  -0.10963659   0.69548368    1.1682633   -5.7195898    6.4150735     1.863747 
 1870000    0.8092739  -0.06005552   0.69323554    1.1769506   -5.7214811    6.4147167    1.8701862 
 1880000    0.7986191  -0.17246939   0.68746246     1.161455    -5.726502    6.4139645    1.8489175 
 1890000   0.79684438  -0.14158896   0.69153535     1.158874    -5.724893    6.4164284    1.8504094 
 1900000   0.80653001  -0.13685196   0.69319803    1.1729601    -5.720276     6.413474    1.8661581 
 1910000    0.8044542  -0.13885544   0.70072634    1.1699412   -5.7180712    6.4187976    1.8706675 
 1920000   0.80130279  -0.15375918   0.69156742     1.165358   -5.7240916     6.415659    1.8569254 
 1930000   0.79930347  -0.10421661   0.70798382    1.1624504   -5.7101417    6.4181255    1.8704342 
 1940000    0.7990873  -0.16239822   0.68621677     1.162136   -5.7268658    6.4130826    1.8483527 
 1950000   0.80127385 -0.091077305   0.69323684    1.1653159   -5.7224934    6.4157302    1.8585528 
 1960000   0.79765821   -0.1470882   0.68921804    1.1600576   -5.7256892    6.4149073    1.8492756 
 1970000   0.80181477  -0.14024833   0.69417616    1.1661026   -5.7166589     6.410835    1.8602788 
 1980000    0.8027175   -0.1081574   0.69179454    1.1674155   -5.7241906    6.4159852      1.85921 
 1990000   0.79437165 -0.062284744   0.70073403    1.1552779   -5.7151554    6.4158895    1.8560119 
 2000000   0.80302234  -0.18544189   0.69583573    1.1678588   -5.7211612    6.4169969    1.8636945 
 2010000   0.79905901  -0.11318465   0.69477282    1.1620948   -5.7215203    6.4162931    1.8568676 
 2020000   0.79937714 -0.096803598   0.69135892    1.1625575   -5.7255923    6.4169512    1.8539164 
 2030000   0.80351035  -0.15718658   0.68208683    1.1685685   -5.7331722     6.415259    1.8506554 
 2040000   0.80324007  -0.16757181    0.6896015    1.1681755   -5.7290778    6.4186793    1.8577769 
 2050000   0.80608491   -0.2102613   0.69178852    1.1723128   -5.7223556    6.4141441    1.8641013 
 2060000   0.80311218  -0.16247891   0.68812521    1.1679895   -5.7287497    6.4168749    1.8561147 
 2070000   0.80050259  -0.12974705   0.69167006    1.1641943   -5.7237187    6.4153888    1.8558643 
 2080000   0.80767538  -0.09512494   0.69639084    1.1746259   -5.7190362    6.4154271    1.8710167 
 2090000   0.80210688  -0.16869741   0.69148658    1.1665274   -5.7254929    6.4169794     1.858014 
 2100000   0.79682402  -0.17972018   0.68838137    1.1588444   -5.7250315    6.4134129    1.8472258 
 2110000   0.79863924  -0.13522459   0.69403049    1.1614843   -5.7217119    6.4157424    1.8555148 
 2120000   0.79781516  -0.15283625   0.69320465    1.1602858   -5.7234796    6.4166843    1.8534905 
 2130000   0.80706051  -0.10914441    0.6940109    1.1737316   -5.7218537    6.4158646    1.8677425 
 2140000   0.79315104 -0.089838111   0.69808963    1.1535027   -5.7176614    6.4157511    1.8515923 
 2150000   0.80103862  -0.13892083   0.68756882    1.1649738   -5.7256859    6.4132547    1.8525426 
 2160000   0.80442806  -0.10363512   0.69104231    1.1699032   -5.7247762    6.4158185    1.8609455 
 2170000   0.80069441 -0.073577774   0.69943953    1.1644732   -5.7162224    6.4156619    1.8639128 
 2180000   0.80804756  -0.13537475   0.69345032    1.1751671   -5.7253212    6.4187715    1.8686174 
 2190000   0.79356466 -0.098421867   0.69904306    1.1541042   -5.7185203    6.4175634    1.8531473 
 2200000   0.80024575 -0.021629715   0.69478347    1.1638207   -5.7221618    6.4169453    1.8586042 
 2210000   0.79639388 -0.082360512   0.69238789    1.1582188   -5.7206254    6.4130133    1.8506067 
 2220000    0.8006502    -0.140305   0.70013124    1.1644089   -5.7163328     6.416464    1.8645402 
 2230000   0.79783698  -0.15237231   0.69455776    1.1603176   -5.7186776    6.4132354    1.8548753 
 2240000   0.79750731  -0.12684639   0.70044875    1.1598381   -5.7159554    6.4164042    1.8602869 
 2250000   0.79731024  -0.11206882   0.69812935    1.1595515   -5.7181086     6.416238    1.8576809 
 2260000    0.7992983  -0.11404245   0.69335769    1.1624428    -5.721374    6.4147317    1.8558005 
 2270000   0.80218503 -0.099210115   0.69335229    1.1666411   -5.7225551    6.4159074    1.8599934 
 2280000   0.79976555 -0.076187552   0.69843863    1.1631224   -5.7163139    6.4147526     1.861561 
 2290000    0.7967679  -0.18870556   0.69795468    1.1587628    -5.720662    6.4186166    1.8567175 
 2300000    0.7977129  -0.17151883   0.68731695    1.1601371   -5.7264421     6.413759    1.8474541 
 2310000   0.80294516  -0.17655699   0.69314182    1.1677466   -5.7241408    6.4172827    1.8608884 
 2320000   0.80482916  -0.14153307   0.69060117    1.1704865   -5.7229602    6.4135613    1.8610877 
 2330000   0.80454669  -0.12069657     0.691818    1.1700757   -5.7249388    6.4167568    1.8618937 
 2340000   0.80119506  -0.10764852    0.6877451    1.1652013   -5.7248328    6.4125779    1.8529464 
 2350000    0.7953133  -0.18219571   0.69129125    1.1566473   -5.7253058     6.416597    1.8479386 
 2360000    0.7932348  -0.11566368   0.69642663    1.1536245   -5.7193417    6.4157683    1.8500511 
 2370000    0.8033456  -0.10197203   0.69419008    1.1683289   -5.7174616    6.4116517     1.862519 
 2380000   0.79300361  -0.12962252   0.68870173    1.1532883   -5.7272096    6.4159113      1.84199 
 2390000    0.7993763  -0.14613561   0.68823056    1.1625563   -5.7258524    6.4140829    1.8507868 
 2400000   0.79877637 -0.090396136   0.69963461    1.1616838   -5.7145053    6.4141399    1.8613184 
 2410000    0.8000403 -0.080327085   0.68910913    1.1635219   -5.7242011    6.4133102    1.8526311 
 2420000    0.7976014  -0.11845935   0.69527724     1.159975   -5.7193573    6.4146345    1.8552522 
 2430000    0.8057343  -0.16390541   0.68831192    1.1718029   -5.7258626    6.4141745    1.8601148 
 2440000   0.80310368   -0.1276269   0.69390784    1.1679771   -5.7206416    6.4145494    1.8618849 
 2450000   0.79519249  -0.10349938   0.69549378    1.1564716   -5.7232608    6.4187546    1.8519654 
 2460000   0.79760603  -0.13388076   0.68794968    1.1599817   -5.7264533     6.414403    1.8479314 
 2470000   0.80001762  -0.14878704   0.69121944     1.163489   -5.7219123    6.4131317    1.8547084 
 2480000   0.79870856  -0.10598314   0.69370285    1.1615852     -5.72356    6.4172628     1.855288 
 2490000   0.80235871 -0.072387651   0.70100589    1.1668937   -5.7153697    6.4163756    1.8678996 
 2500000   0.80033665  -0.10926773   0.69431272    1.1639529   -5.7216855    6.4159982    1.8582656 
 2510000   0.79461769  -0.15970288   0.69856597    1.1556357    -5.719492     6.418058    1.8542016 
 2520000    0.7977725   -0.1288173   0.68591273    1.1602238   -5.7239787    6.4098914    1.8461365 
 2530000   0.79859696  -0.17204972   0.69457761    1.1614229   -5.7211362    6.4157138    1.8560005 
 2540000   0.79656767  -0.16899442   0.68939509    1.1584716   -5.7259011    6.4152962    1.8478667 
 2550000   0.79447634  -0.11028622   0.68877606    1.1554301   -5.7255222    6.4142982    1.8442062 
 2560000   0.79649335 -0.076016052   0.70477729    1.1583635   -5.7123519    6.4171292    1.8631408 
 2570000   0.80441067  -0.13678643   0.69707729    1.1698779   -5.7187222    6.4157995    1.8669552 
 2580000   0.80337568  -0.11732583    0.6973882    1.1683727    -5.719397    6.4167852    1.8657609 
 2590000   0.80083594 -0.079097798   0.69330784    1.1646791   -5.7212909    6.4145987    1.8579869 
 2600000   0.80412616 -0.068660519    0.7028259    1.1694641   -5.7156527    6.4184786      1.87229 
 2610000   0.80666145  -0.13297303   0.68781393    1.1731513   -5.7255834    6.4133973    1.8609652 
 2620000   0.79822007  -0.16643828      0.69255    1.1608747   -5.7233416    6.4158916    1.8534247 
 2630000   0.79814301  -0.12663586    0.6918152    1.1607627   -5.7230182    6.4148334    1.8525779 
 2640000   0.79867886  -0.10033924   0.69428385     1.161542   -5.7201907    6.4144745    1.8558258 
 2650000   0.80114231  -0.13724249    0.6956594    1.1651246   -5.7189454    6.4146048     1.860784 
 2660000    0.7963931  -0.10402201   0.69708401    1.1582177   -5.7174315    6.4145155    1.8553017 
 2670000   0.79533753 -0.094870639   0.69178635    1.1566826   -5.7234293    6.4152156    1.8484689 
 2680000   0.80029831 -0.092764334   0.69527381    1.1638972   -5.7165919    6.4118657     1.859171 
 2690000   0.80241781 -0.075804747   0.69771449    1.1669796    -5.716705    6.4144195    1.8646941 
 2700000   0.79576296  -0.14994875   0.69172276    1.1573013   -5.7238613     6.415584     1.849024 
 2710000   0.79950691 -0.099682181    0.7012866    1.1627462   -5.7154161    6.4167027    1.8640328 
 2720000   0.80104324   -0.1712535   0.69507838    1.1649805    -5.719881    6.4149594    1.8600589 
 2730000   0.80329749  -0.10848595    0.7042224     1.168259   -5.7123149    6.4165373    1.8724814 
 2740000    0.7979212  -0.10698925   0.69079748    1.1604401    -5.724574    6.4153714    1.8512375 
 2750000   0.79726864  -0.14548854   0.68650981     1.159491   -5.7301933    6.4167031    1.8460008 
 2760000   0.79862142  -0.14782782   0.68110533    1.1614584   -5.7343502    6.4154556    1.8425637 
 2770000   0.80079072  -0.10276337   0.68490346    1.1646133    -5.728239    6.4131424    1.8495168 
 2780000   0.79639169  -0.07371659   0.69414502    1.1582157    -5.722401     6.416546    1.8523607 
 2790000   0.80043817   -0.1047771   0.68888677    1.1641006   -5.7248343    6.4137211    1.8529873 
 2800000     0.796286  -0.08945959   0.69326093     1.158062   -5.7268323    6.4200932    1.8513229 
 2810000      0.80525  -0.17333323   0.68941541    1.1710986   -5.7275035    6.4169189     1.860514 
 2820000   0.79597983  -0.16239343   0.69497489    1.1576167   -5.7168633    6.4118382    1.8525916 
 2830000   0.79995499  -0.19975509   0.69014725    1.1633979   -5.7265388     6.416686    1.8535451 
 2840000   0.80079723  -0.13966754   0.69245364    1.1646228   -5.7231276    6.4155813    1.8570764 
 2850000   0.80419742 -0.082926079    0.6879577    1.1695678   -5.7241244    6.4120821    1.8575255 
 2860000   0.79500265 -0.063048344   0.69553445    1.1561955   -5.7190084    6.4145428      1.85173 
 2870000   0.80491315 -0.089625674    0.6960723    1.1706087   -5.7206318    6.4167041     1.866681 
 2880000   0.79577861  -0.07891515   0.69508387     1.157324   -5.7169421    6.4120259    1.8524079 
 2890000   0.80473762 -0.072752438   0.69918633    1.1703534   -5.7147277     6.413914    1.8695397 
 2900000   0.79858784   -0.1063984   0.69476726    1.1614096    -5.718067    6.4128343    1.8561768 
 2910000   0.80167408 -0.082518493   0.70025758     1.165898   -5.7184177    6.4186753    1.8661556 
 2920000   0.80092047   -0.1868157   0.67819735     1.164802   -5.7316192    6.4098165    1.8429993 
 2930000   0.80319712  -0.12233211   0.69137493     1.168113   -5.7234876    6.4148625    1.8594879 
 2940000    0.7997977  -0.12527708   0.69070134    1.1631691    -5.723218    6.4139194    1.8538705 
 2950000   0.80060103  -0.11286205    0.6917131    1.1643374   -5.7221014    6.4138145    1.8560505 
 2960000   0.79495965 -0.056015495    0.6853443     1.156133   -5.7305014    6.4158457    1.8414773 
 2970000   0.79872212 -0.086254908   0.68841013    1.1616049   -5.7214722    6.4098823     1.850015 
 2980000   0.80546253 -0.066777515   0.69338664    1.1714077   -5.7204221    6.4138088    1.8647943 
 2990000   0.79507035  -0.21337998   0.68500886     1.156294    -5.726701    6.4117099    1.8413029 
 3000000    0.7949209  -0.11724166   0.69868062    1.1560766    -5.717794    6.4164746    1.8547573 
 3010000   0.80274273  -0.14414433   0.69140471    1.1674522   -5.7248914    6.4162961    1.8588569 
 3020000   0.80056795  -0.17899471   0.69971142    1.1642893    -5.718458    6.4181695    1.8640007 
 3030000    0.8034352  -0.10611405   0.69402815    1.1684592   -5.7220945    6.4161227    1.8624874 
 3040000    0.7943387  -0.13453597   0.69857155    1.1552299   -5.7155061    6.4140777    1.8538015 
 3050000   0.80046324  -0.17821272   0.69160704     1.164137   -5.7244802    6.4160872    1.8557441 
 3060000   0.79700973  -0.16040603   0.68511533    1.1591145   -5.7307606    6.4158759    1.8442298 
 3070000   0.78869921  -0.11557202   0.68590114    1.1470283   -5.7285531    6.4144543    1.8329294 
 3080000   0.80853614  -0.11215322   0.68804317    1.1758777   -5.7269723    6.4150155    1.8639209 
 3090000   0.79755248 -0.046857694   0.69094895    1.1599038   -5.7262826    6.4172316    1.8508528 
 3100000    0.8003992 -0.099042018   0.69348222    1.1640439   -5.7199657    6.4134479    1.8575261 
 3110000    0.8016724  -0.13502546   0.68196585    1.1658955   -5.7347219    6.4166878    1.8478614 
 3120000   0.79136128 -0.080588931    0.6963194    1.1508998    -5.717333    6.4136524    1.8472192 
 3130000   0.80179531 -0.059059406   0.69366523    1.1660743   -5.7230648    6.4167301    1.8597395 
 3140000   0.79947086  -0.16214838   0.69011209    1.1626938   -5.7221438    6.4122559    1.8528059 
 3150000   0.80325628 -0.049306042   0.69542433     1.168199     -5.72051    6.4159344    1.8636234 
 3160000   0.79623925 -0.083074393   0.69096446     1.157994   -5.7270994    6.4180639    1.8489584 
 3170000   0.79743209 -0.099416498   0.69069782    1.1597287   -5.7214839    6.4121817    1.8504266 
 3180000    0.8040259  -0.10363887   0.69061395    1.1693183   -5.7204493    6.4110633    1.8599323 
 3190000   0.80497386  -0.16823508   0.68020944     1.170697    -5.736024    6.4162335    1.8509064 
 3200000   0.80283642 -0.055175538   0.69064903    1.1675884   -5.7237569     6.414406    1.8582375 
 3210000   0.80626683 -0.089667847   0.68607443    1.1725774   -5.7264013    6.4124757    1.8586518 
 3220000   0.80245634 -0.065337457   0.69164942    1.1670357   -5.7225242    6.4141736    1.8586851 
 3230000   0.79580277  -0.12875119   0.68432436    1.1573592   -5.7258519    6.4101762    1.8416835 
 3240000   0.79643674 -0.093581152   0.69439677    1.1582812   -5.7206672    6.4150639    1.8526779 
 3250000   0.80848345  -0.14377099   0.68686042    1.1758011   -5.7293039    6.4161643    1.8626615 
 3260000   0.80236059 -0.098909492   0.68980345    1.1668964   -5.7244661    6.4142695    1.8566998 
 3270000   0.80667238  -0.15478185   0.69082943    1.1731672   -5.7230046     6.413834    1.8639966 
 3280000   0.80709907  -0.14883459   0.69590568    1.1737877   -5.7227107    6.4186164    1.8696934 
 3290000   0.80213866  -0.15544707   0.68878356    1.1665736   -5.7248868    6.4136704    1.8553572 
 3300000   0.80650866 -0.094806828   0.69439434    1.1729291   -5.7200179    6.4144122    1.8673234 
 3310000   0.80196646 -0.079935156   0.69125278    1.1663232   -5.7245865    6.4158393     1.857576 
 3320000   0.80178575 -0.058647118   0.70359252    1.1660604   -5.7147579    6.4183505    1.8696529 
 3330000    0.7981319  -0.16675183    0.6942758    1.1607465   -5.7198508    6.4141266    1.8550223 
 3340000   0.78776076 -0.090292099   0.69874427    1.1456634   -5.7182138     6.416958    1.8444077 
 3350000   0.80410631  -0.07664888   0.69246935    1.1694353   -5.7226376     6.415107    1.8619046 
 3360000   0.80049108  -0.12016039   0.68432278    1.1641775   -5.7320267    6.4163495    1.8485003 
 3370000   0.80523035  -0.13152842    0.6896145      1.17107   -5.7270076    6.4166221    1.8606845 
 3380000   0.79960412 -0.095965848   0.68593522    1.1628876   -5.7269793    6.4129145    1.8488228 
 3390000   0.79952707  -0.21032807   0.68441586    1.1627755    -5.730827    6.4152428    1.8471914 
 3400000   0.79628322  -0.13102418   0.69350372    1.1580579   -5.7243015    6.4178052    1.8515616 
 3410000   0.79795774  -0.10800589    0.6897856    1.1604932   -5.7248987    6.4146843    1.8502788 
 3420000   0.79798009  -0.16175043   0.68452161    1.1605257   -5.7271954     6.411717    1.8450473 
 3430000   0.79824866  -0.12524272   0.68295114    1.1609163   -5.7312893    6.4142404    1.8438674 
 3440000   0.79707112  -0.14246215   0.69257051    1.1592038   -5.7221812    6.4147517    1.8517743 
 3450000   0.79624573 -0.082859558   0.68459206    1.1580034    -5.728671     6.413263    1.8425954 
 3460000   0.79106586  -0.20767172   0.68090944    1.1504701   -5.7340147    6.4149241    1.8313796 
 3470000   0.79848773  -0.11323522   0.69205593     1.161264   -5.7217864    6.4138423    1.8533199 
 3480000    0.7985707  -0.17338461   0.68234591    1.1613846   -5.7328072    6.4151531    1.8437306 
 3490000   0.79082101  -0.10904049   0.68741229    1.1501141   -5.7277099    6.4151222    1.8375263 
 3500000   0.80168838  -0.17513017   0.69316202    1.1659188     -5.72434     6.417502    1.8590808 
 3510000   0.79708577  -0.10466182    0.6896015    1.1592251   -5.7231256    6.4127271    1.8488266 
 3520000   0.79657001  -0.15523487   0.68887729     1.158475   -5.7259711    6.4148484    1.8473523 
 3530000   0.79835717 -0.097870336   0.69541269    1.1610741   -5.7215487    6.4169614    1.8564868 
 3540000   0.79693635  -0.10738065   0.68811903    1.1590078   -5.7274554    6.4155744    1.8471268 
 3550000   0.79882684 -0.092183194   0.68542104    1.1617572   -5.7271537    6.4125748    1.8471782 
 3560000   0.79414848  -0.11680238   0.69159003    1.1549533   -5.7259542    6.4175443    1.8465433 
 3570000   0.79869895  -0.21873595   0.68035013    1.1615712   -5.7341202    6.4144703    1.8419213 
 3580000    0.7999062 -0.097821151   0.69779119    1.1633269   -5.7206704    6.4184616    1.8611181 
 3590000    0.8064284  -0.12628896   0.68162532    1.1728123   -5.7321867     6.413812    1.8544377 
 3600000   0.79050347  -0.18351568   0.69381536    1.1496522   -5.7251069    6.4189222    1.8434676 
 3610000   0.79960573 -0.069657738   0.68702402    1.1628899    -5.726403     6.413427     1.849914 
 3620000   0.80079295  -0.15536518    0.6823346    1.1646165   -5.7323495    6.4146841    1.8469511 
 3630000   0.79202253  -0.16659397   0.68207691    1.1518615   -5.7356605    6.4177374    1.8339384 
 3640000   0.79810802  -0.16146293   0.68304961    1.1607118   -5.7337156    6.4167652    1.8437614 
 3650000   0.79698907  -0.10787669   0.68820032    1.1590844   -5.7261174    6.4143177    1.8472848 
 3660000   0.80194145  -0.12150273   0.68746465    1.1662868   -5.7274684     6.414933    1.8537515 
 3670000   0.80015377  -0.13898944   0.68901013     1.163687   -5.7279279     6.416938    1.8526971 
 3680000   0.80185432 -0.099358155   0.68467172    1.1661601   -5.7285501    6.4132218    1.8508318 
 3690000   0.80491613 -0.066236323   0.68892283     1.170613   -5.7236728    6.4125956    1.8595358 
 3700000   0.80034474  -0.12763674   0.68848981    1.1639647   -5.7255601    6.4140499    1.8524545 
 3710000   0.80086888 -0.086309709   0.69343689     1.164727   -5.7201778    6.4136147    1.8581639 
 3720000   0.79690405   -0.1299653    0.6896599    1.1589608   -5.7276096    6.4172695    1.8486207 
 3730000   0.79814403 -0.084929965   0.68888836    1.1607641   -5.7245208    6.4134092    1.8496525 
 3740000   0.80270244  -0.12245378   0.68268876    1.1673936    -5.729347    6.4120357    1.8500823 
 3750000   0.80186852  -0.14575814   0.68328058    1.1661808   -5.7294639    6.4127444    1.8494613 
 3760000   0.79716421  -0.17584625   0.68416719    1.1593392   -5.7274145    6.4115817    1.8435064 
 3770000   0.79964541   -0.1176142   0.69250323    1.1629476   -5.7267401    6.4192433    1.8554509 
 3780000   0.79704255   -0.1296795   0.69717276    1.1591622   -5.7187685    6.4159413     1.856335 
 3790000   0.79840987  -0.12732685   0.69075043    1.1611508   -5.7220571    6.4128076    1.8519012 
 3800000   0.79171631  -0.16491435   0.69186088    1.1514161   -5.7238177    6.4156786     1.843277 
 3810000   0.79902475 -0.069574612    0.6874542     1.162045   -5.7289181    6.4163723    1.8494992 
 3820000   0.80086341  -0.12068654   0.68769588     1.164719    -5.725864    6.4135598    1.8524149 
 3830000   0.79875465 -0.087983211   0.69547868    1.1616522   -5.7204839    6.4159626    1.8571309 
 3840000     0.795209  -0.19531973   0.68824556    1.1564956   -5.7260824     6.414328    1.8447412 
 3850000   0.79747402  -0.12795709   0.69337405    1.1597897   -5.7231877    6.4165617    1.8531638 
 3860000   0.79772694 -0.076068941   0.70090967    1.1601576   -5.7170368    6.4179465    1.8610672 
 3870000   0.80239549 -0.052189996   0.69068824    1.1669472   -5.7257057     6.416394    1.8576354 
 3880000   0.79468304   -0.1323782   0.68193529    1.1557307   -5.7312117    6.4131469     1.837666 
 3890000   0.79653064 -0.098687492   0.69995232    1.1584177   -5.7197502    6.4197026    1.8583701 
 3900000   0.80220171  -0.15161013    0.6903547    1.1666653   -5.7256517    6.4160064      1.85702 
 3910000   0.80253866 -0.095923059   0.68892164    1.1671554   -5.7270679    6.4159895     1.856077 
 3920000   0.79949416  -0.14392643   0.68677828    1.1627277   -5.7239766    6.4107549    1.8495059 
 3930000   0.79530426   -0.1530068   0.68769916    1.1566342   -5.7233519    6.4110511    1.8443333 
 3940000   0.80441866  -0.11004664   0.69343264    1.1698895   -5.7248419    6.4182746    1.8633222 
 3950000   0.79855677  -0.13000502   0.69051462    1.1613644   -5.7244633    6.4149779     1.851879 
 3960000   0.80208937 -0.068700729   0.68652203     1.166502   -5.7295615    6.4160835     1.853024 
 3970000   0.80421198  -0.10227577   0.69168543    1.1695889   -5.7254814    6.4171668    1.8612744 
 3980000   0.79652657  -0.13979491   0.69629762    1.1584118   -5.7200753    6.4163729    1.8547094 
 3990000   0.80111531  -0.14868019   0.68591718    1.1650854   -5.7307698     6.416687    1.8510025 
 4000000   0.79756814 -0.098615631   0.69314907    1.1599266   -5.7251911    6.4183402    1.8530757 
 4010000   0.80274124  -0.13663903   0.68668857      1.16745   -5.7297565    6.4164451    1.8541386 
 4020000   0.80090239  -0.18737509   0.68335507    1.1647757   -5.7287605    6.4121156    1.8481308 
 4030000    0.8000494  -0.15625542     0.690724    1.1635352   -5.7270087    6.4177327    1.8542592 
 4040000   0.79680118 -0.097142558   0.69587521    1.1588112   -5.7222238     6.418099    1.8546864 
 4050000   0.80100046  -0.18848609   0.70122792    1.1649183   -5.7158796    6.4171075    1.8661462 
 4060000   0.80086173  -0.13989362   0.68799589    1.1647166   -5.7284682    6.4164641    1.8527125 
 4070000   0.80425389  -0.13993646   0.68183246    1.1696499   -5.7348563    6.4166888    1.8514823 
 4080000   0.79263553  -0.16200428    0.6850054     1.152753   -5.7289591    6.4139646    1.8377584 
 4090000   0.79952465  -0.15977702   0.69190052     1.162772   -5.7245167    6.4164172    1.8546725 
 4100000   0.79856674  -0.11743644   0.68853931    1.1613789   -5.7250477     6.413587    1.8499182 
 4110000   0.80131353  -0.16446128   0.69205675    1.1653736   -5.7242155    6.4162722    1.8574304 
 4120000   0.80196399  -0.15089535   0.68896401    1.1663196   -5.7267299    6.4156939    1.8552836 
 4130000   0.79733408  -0.15750299    0.6918887    1.1595862   -5.7247421    6.4166308    1.8514749 
 4140000   0.80437425  -0.12534358   0.69178594    1.1698249   -5.7247341      6.41652    1.8616109 
 4150000   0.80301688  -0.15862222   0.68434099    1.1678509   -5.7290635    6.4134045    1.8521918 
 4160000   0.79916883  -0.09216443   0.69327981    1.1622545   -5.7228113    6.4160911    1.8555343 
 4170000   0.79527731 -0.070743886    0.6902447     1.156595   -5.7236954    6.4139401    1.8468397 
 4180000   0.79882198 -0.071844224   0.69495168    1.1617501   -5.7230591    6.4180108    1.8567018 
 4190000   0.80071893 -0.061106297   0.69190355    1.1645089   -5.7231088    6.4150124    1.8564124 
 4200000   0.79269488   -0.1470917   0.68848515    1.1528393   -5.7275575    6.4160427    1.8413244 
 4210000     0.803168  -0.12433388   0.68444196    1.1680706   -5.7305603    6.4150023    1.8525126 
 4220000   0.79351744  -0.11056074   0.69071811    1.1540355   -5.7273715    6.4180896    1.8447537 
 4230000   0.80081586  -0.12170536   0.68746748    1.1646499   -5.7259401    6.4134075    1.8521173 
 4240000   0.80966569   -0.1828544    0.6762586    1.1775204   -5.7399976    6.4162562     1.853779 
 4250000   0.79895337 -0.045290128   0.68698391    1.1619412   -5.7263656    6.4133495    1.8489251 
 4260000   0.79224878 -0.082862356   0.69181036    1.1521905   -5.7247215    6.4165318    1.8440009 
 4270000   0.80185659  -0.10314072   0.68800469    1.1661634   -5.7261926    6.4141973    1.8541681 
 4280000   0.79120994 -0.066181559   0.68731638    1.1506797    -5.724767    6.4120834    1.8379961 
 4290000   0.79493966 -0.046480332    0.6931345    1.1561039    -5.725847    6.4189815    1.8492384 
 4300000   0.80141433  -0.14595656   0.68647879    1.1655202   -5.7264308    6.4129096     1.851999 
 4310000   0.79557126 -0.048663951   0.68548098    1.1570225   -5.7297933    6.4152743    1.8425035 
 4320000   0.79152222   -0.1772572   0.69126684    1.1511338   -5.7263462     6.417613    1.8424007 
 4330000   0.80537625   -0.1282048   0.67758707    1.1712822   -5.7403817    6.4179688    1.8488692 
 4340000   0.79615706  -0.13709445   0.69053852    1.1578744   -5.7245099    6.4150485     1.848413 
 4350000   0.79981463  -0.14396554    0.6817807    1.1631937   -5.7325667    6.4143474    1.8449744 
 4360000   0.79760602  -0.11067384   0.68810746    1.1599817   -5.7247727    6.4128801    1.8480892 
 4370000   0.80129845  -0.12111355   0.69095781    1.1653517   -5.7257515    6.4167093    1.8563095 
 4380000   0.79824563  -0.17954069    0.6832143    1.1609119   -5.7318413    6.4150556    1.8441262 
 4390000   0.79576559  -0.11250179   0.69155559    1.1573051   -5.7249947    6.4165503    1.8488607 
 4400000    0.7950019  -0.10074277   0.68946743    1.1561944   -5.7274949    6.4169623    1.8456619 
 4410000   0.79586187 -0.084226832   0.69541771    1.1574451   -5.7206866    6.4161043    1.8528628 
 4420000   0.80258439  -0.10572392   0.68393646    1.1672219    -5.729967    6.4139034    1.8511583 
 4430000   0.79508823  -0.10624768    0.6925927      1.15632    -5.723162    6.4157547    1.8489127 
 4440000   0.80092825 -0.093131912    0.6813415    1.1648133   -5.7306791    6.4120206    1.8461548 
 4450000   0.80165482 -0.095239713   0.68614115      1.16587   -5.7277004    6.4138415    1.8520111 
 4460000   0.80809155  -0.11744623   0.68634431    1.1752311   -5.7304905    6.4168348    1.8615754 
 4470000   0.80006655  -0.24194537   0.68688387    1.1635601   -5.7283146    6.4151985     1.850444 
 4480000   0.79552853  -0.11749739   0.68670074    1.1569603   -5.7266283     6.413329    1.8436611 
 4490000   0.80067706  -0.12731326   0.69122761     1.164448    -5.726885    6.4181126    1.8556756 
 4500000   0.79665876  -0.17925816    0.6872529    1.1586041   -5.7259804    6.4132333     1.845857 
 4510000    0.7991598  -0.12041703   0.68705802    1.1622414   -5.7298156    6.4168737    1.8492994 
 4520000   0.79613787   -0.1031316   0.68860779    1.1578465   -5.7256991    6.4143069    1.8464543 
 4530000   0.79911758  -0.14821795   0.68510997      1.16218   -5.7315865    6.4166965      1.84729 
 4540000   0.79911207  -0.15526304   0.68198085     1.162172    -5.736189    6.4181698    1.8441528 
 4550000    0.8021454 -0.040136234   0.69316617    1.1665834   -5.7235098    6.4166759    1.8597496 
 4560000   0.80013838 -0.063577871   0.68592877    1.1636646   -5.7313062    6.4172349    1.8495933 
 4570000   0.80116247 -0.060992573   0.68393085    1.1651539   -5.7302392      6.41417    1.8490848 
 4580000   0.79853006 -0.094513461   0.68524623    1.1613255   -5.7297388     6.414985    1.8465718 
 4590000   0.80240657  -0.17268132   0.68297376    1.1669633   -5.7306895    6.4136633     1.849937 
 4600000   0.79817375  -0.11753045   0.68344188    1.1608074   -5.7321328    6.4155747    1.8442492 
 4610000   0.79994052   -0.0881588   0.69109749    1.1633768   -5.7279947    6.4190922    1.8544743 
 4620000   0.80224391  -0.19868234   0.67893394    1.1667267   -5.7358504    6.4147843    1.8456607 
 4630000   0.79514195  -0.11502639   0.68822876    1.1563981   -5.7274052    6.4156339    1.8446269 
 4640000   0.80831284 -0.092155592   0.68733188    1.1755529   -5.7294378    6.4167697    1.8628848 
 4650000   0.80122243 -0.089614784   0.68475476    1.1652411   -5.7285072     6.413262    1.8499959 
 4660000   0.80062228 -0.027340768   0.68647169    1.1643683   -5.7318845    6.4183562      1.85084 
 4670000   0.79210425  -0.13064024   0.68879709    1.1519803   -5.7265927    6.4153898    1.8407774 
 4680000   0.80496799   -0.1159277   0.69075917    1.1706884   -5.7240311    6.4147902    1.8614476 
 4690000    0.8000436  -0.04092972   0.70449992    1.1635267   -5.7154347    6.4199346    1.8680267 
 4700000   0.79791591  -0.21356415   0.67600629    1.1604324    -5.734216    6.4102223    1.8364387 
 4710000   0.80404053  -0.17840518   0.67948468    1.1693396   -5.7363435    6.4158282    1.8488243 
 4720000   0.80317535  -0.15515941   0.68158597    1.1680813   -5.7344161     6.416002    1.8496673 
 4730000   0.80108257   -0.1427336    0.6896044    1.1650377   -5.7247141    6.4143185    1.8546421 
 4740000   0.80549818  -0.14644657   0.67926715    1.1714595   -5.7356459    6.4149131    1.8507266 
 4750000   0.79778647  -0.13871831   0.68465382    1.1602441   -5.7306857    6.4153396    1.8448979 
 4760000   0.80089161 -0.084763258   0.69206411      1.16476   -5.7262864    6.4183505    1.8568241 
 4770000   0.79913983   -0.1318477   0.67777901    1.1622124   -5.7360904    6.4138694    1.8399914 
 4780000   0.79848967  -0.11335301   0.67733568    1.1612668   -5.7379633     6.415299    1.8386025 
 4790000   0.80188741 -0.083163744   0.68498353    1.1662082   -5.7309214    6.4159049    1.8511918 
 4800000    0.7975433  -0.14156569   0.68543234    1.1598905   -5.7327554    6.4181877    1.8453228 
 4810000   0.80033117  -0.06607003   0.68487933     1.163945   -5.7319981    6.4168774    1.8488243 
 4820000   0.79777021  -0.20126484    0.6736059    1.1602205   -5.7400999    6.4137058    1.8338264 
 4830000   0.79741459 -0.067664121   0.69841215    1.1597033   -5.7208469     6.419259    1.8581154 
 4840000   0.79920345  -0.11681565   0.68757879    1.1623049   -5.7278092    6.4153879    1.8498837 
 4850000   0.80206359  -0.16607287   0.67290567    1.1664645   -5.7409777    6.4138834    1.8393701 
 4860000   0.79731745 -0.070114855   0.68561943     1.159562    -5.730715    6.4163344    1.8451814 
 4870000   0.79795534  -0.13368044   0.68179107    1.1604897   -5.7347756    6.4165667    1.8422808 
 4880000    0.7980453 -0.099594602   0.68350839    1.1606206   -5.7311132    6.4146216    1.8441289 
 4890000   0.80617386  -0.15253333   0.68450968    1.1724421   -5.7328779    6.4173876    1.8569518 
 4900000   0.79562233  -0.11149447    0.6840413    1.1570967   -5.7297815    6.4138228     1.841138 
 4910000   0.80251729 -0.043141028   0.68303708    1.1671243   -5.7338162    6.4168533    1.8501614 
 4920000   0.80335938  -0.13936184   0.68146049     1.168349   -5.7352549    6.4167154    1.8498095 
 4930000     0.801102  -0.13800213   0.67907758     1.165066   -5.7346592    6.4137368    1.8441436 
 4940000   0.79328991 -0.083014477   0.68413702    1.1537047   -5.7309719    6.4151089    1.8378417 
 4950000   0.80374622  -0.14205652   0.68638726    1.1689116   -5.7283559    6.4147432    1.8552988 
 4960000   0.79730878  -0.15897365   0.68006432    1.1595494   -5.7318422    6.4119065    1.8396137 
 4970000   0.79765596 -0.061393954   0.68730088    1.1600543    -5.729373    6.4166739    1.8473552 
 4980000    0.7969404 -0.090734572   0.68022105    1.1590137   -5.7362446    6.4164656    1.8392347 
 4990000   0.80527948  -0.13554319   0.68334213    1.1711414   -5.7320709    6.4154131    1.8544836 
 5000000   0.79498835 -0.098156841    0.6938251    1.1561747   -5.7228572    6.4166823    1.8499998 
 5010000   0.80246383 -0.093627889   0.67912301    1.1670466   -5.7351191    6.4142421    1.8461696 
 5020000   0.80356065 -0.053839966   0.69309643    1.1686417   -5.7235178    6.4166142    1.8617381 
 5030000   0.80156722 -0.089911425    0.6808354    1.1657426   -5.7330308    6.4138662     1.846578 
 5040000   0.79314617  -0.12110934   0.68257899    1.1534956   -5.7314562    6.4140352    1.8360746 
 5050000   0.79871958 -0.074321048   0.68640475    1.1616012   -5.7270886    6.4134934    1.8480059 
 5060000   0.80262786 -0.077773085   0.68290691    1.1672851   -5.7315338    6.4144407     1.850192 
 5070000    0.7970806  -0.19594882   0.68257402    1.1592176   -5.7360669    6.4186409    1.8417916 
 5080000   0.79445497  -0.16737338   0.67965225     1.155399     -5.73603    6.4156822    1.8350513 
 5090000   0.79620027  -0.20718578   0.67453647    1.1579373   -5.7407977    6.4153342    1.8324737 
 5100000   0.80235276  -0.12963162   0.67639765     1.166885   -5.7363771    6.4127747    1.8432827 
 5110000   0.80953181 -0.075354564   0.67960237    1.1773257   -5.7340459    6.4136483    1.8569281 
 5120000   0.79693766  -0.14529306   0.67831554    1.1590097   -5.7367043    6.4150198    1.8373252 
 5130000   0.79695622 -0.079047162   0.68964853    1.1590367   -5.7257657    6.4154142    1.8486852 
 5140000   0.80540806 -0.050651827   0.68627184    1.1713284   -5.7294788    6.4157506    1.8576003 
 5150000   0.80308493  -0.16152206   0.68423407    1.1679498   -5.7295003    6.4137344    1.8521839 
 5160000   0.80069293  -0.13614129   0.67821007    1.1644711   -5.7355198    6.4137299    1.8426811 
 5170000   0.79595022  -0.14071189   0.68635898    1.1575736   -5.7313733    6.4177322    1.8439326 
 5180000   0.79949069 -0.060327318   0.68558902    1.1627226   -5.7278805    6.4134695    1.8483116 
 5190000   0.79716681   -0.1241678   0.68186169    1.1593429   -5.7336052    6.4154669    1.8412046 
 5200000   0.79510534  -0.11725837   0.68032368    1.1563449   -5.7345756    6.4148993    1.8366686 
 5210000   0.80404293  -0.14141872   0.68758922    1.1693431    -5.728079    6.4156683    1.8569323 
 5220000   0.79933121    -0.103726    0.6791899    1.1624907   -5.7391439    6.4183338    1.8416806 
 5230000   0.79246305  -0.13229057   0.68015944    1.1525021   -5.7333847    6.4135441    1.8326616 
 5240000   0.79645629  -0.12641365   0.68213111    1.1583096   -5.7328721    6.4150032    1.8404407 
 5250000   0.79539236  -0.16949597   0.68304456    1.1567623   -5.7325809    6.4156255    1.8398069 
 5260000   0.79777071  -0.15495965    0.6788785    1.1602212   -5.7368135     6.415692    1.8390997 
 5270000    0.8068097   -0.1696339   0.68334178    1.1733669   -5.7339601    6.4173019    1.8567087 
 5280000   0.79889708 -0.033995661   0.69290743    1.1618593   -5.7198014    6.4127088    1.8547668 
 5290000   0.80245411 -0.093518613   0.68940994    1.1670324   -5.7274769    6.4168868    1.8564424 
 5300000   0.79834973 -0.095367597    0.6762667    1.1610633   -5.7393659    6.4156326      1.83733 
 5310000   0.79595661  -0.13836918   0.68449298    1.1575829   -5.7325285    6.4170215    1.8420759 
 5320000   0.79935522  -0.11437346   0.69162911    1.1625256   -5.7222123    6.4138414    1.8541547 
 5330000   0.79981582  -0.16077674   0.67542995    1.1631955   -5.7401388    6.4155688    1.8386254 
 5340000   0.80244807 -0.087500026   0.68104841    1.1670236   -5.7359734    6.4170218     1.848072 
 5350000   0.80149022  -0.12982085   0.68871126    1.1656306   -5.7247601    6.4134713    1.8543419 
 5360000   0.80389972  -0.10758089   0.69021148    1.1691348   -5.7268836    6.4170951    1.8593463 
 5370000   0.80412732  -0.15834393   0.68856314    1.1694658   -5.7245735    6.4131366    1.8580289 
 5380000   0.79772308  -0.12983882   0.68394715    1.1601519   -5.7311085    6.4150556    1.8440991 
 5390000   0.80004223   -0.1610162   0.68765157    1.1635247   -5.7277882    6.4154397    1.8511763 
 5400000   0.80033956 -0.053866003   0.68988893    1.1639572   -5.7272733    6.4171622    1.8538461 
 5410000   0.79622564  -0.11458988   0.68672107    1.1579742   -5.7274409     6.414162    1.8446952 
 5420000   0.80191288  -0.14497371   0.68499666    1.1662453   -5.7303586    6.4153553    1.8512419 
 5430000   0.80129081 -0.085494372   0.68292171    1.1653406   -5.7294338    6.4123556    1.8482623 
 5440000   0.80348726  -0.16984944    0.6783464    1.1685349   -5.7345922    6.4129386    1.8468813 
 5450000    0.8061989 -0.098997821   0.68756548    1.1724786   -5.7324783    6.4200438    1.8600441 
 5460000   0.80147087  -0.12220125    0.6813687    1.1656025   -5.7315046    6.4128733    1.8469712 
 5470000   0.81014548  -0.12760156    0.6907915    1.1782182    -5.725686    6.4164775    1.8690097 
 5480000    0.7992607  -0.12991821   0.68892412    1.1623881   -5.7233584    6.4122825    1.8513123 
 5490000   0.79887592  -0.17359827   0.68105001    1.1618286   -5.7331728    6.4142228    1.8428786 
 5500000   0.80281762  -0.10683179    0.6848668    1.1675611   -5.7292923    6.4141591    1.8524279 
 5510000   0.80751667  -0.14102151   0.68322882     1.174395   -5.7343151    6.4175439    1.8576239 
 5520000   0.80129087  -0.13686528   0.68816799    1.1653407   -5.7298919    6.4180599    1.8535087 
 5530000   0.80254468  -0.13695937   0.68244371    1.1671641   -5.7318413     6.414285    1.8496078 
 5540000   0.80448265 -0.090112357   0.68815536    1.1699826   -5.7296212    6.4177766    1.8581379 
 5550000   0.79814088 -0.060247976   0.68710993    1.1607596   -5.7245822    6.4116921    1.8478695 
 5560000   0.79717947  -0.09126293   0.68371763    1.1593613   -5.7300101    6.4137277     1.843079 
 5570000   0.80779681  -0.15673745   0.69113662    1.1748025   -5.7238802    6.4150169    1.8659391 
 5580000   0.79682087  -0.12155768   0.68061381    1.1588398    -5.735921    6.4165348    1.8394536 
 5590000   0.79965708  -0.13006748   0.67922986    1.1629646    -5.735591    6.4148208    1.8421945 
 5600000   0.80140049  -0.16400888   0.68230196    1.1655001   -5.7314283    6.4137302    1.8478021 
 5610000   0.80306957  -0.10936107   0.68974842    1.1679275   -5.7266798    6.4164283    1.8576759 
 5620000   0.79702684  -0.18030614   0.67320887    1.1591394   -5.7414062    6.4146151    1.8323482 
 5630000   0.79569911  -0.12406051   0.68006677    1.1572084   -5.7331718    6.4132386    1.8372752 
 5640000   0.79999513 -0.098294207   0.68361534    1.1634562    -5.729857    6.4134724    1.8470716 
 5650000   0.79399952  -0.11228053    0.6775083    1.1547367   -5.7325311    6.4100394     1.832245 
 5660000   0.80194366 -0.080834696    0.6873341      1.16629   -5.7277282    6.4150623    1.8536241 
 5670000   0.80451454 -0.029926205   0.69275629     1.170029   -5.7236535    6.4164098    1.8627852 
 5680000   0.80332423  -0.12240923   0.67931272    1.1682979   -5.7348612    6.4141739    1.8476106 
 5690000    0.7979946 -0.084876016   0.68532725    1.1605468   -5.7317256    6.4170528    1.8458741 
 5700000   0.80337453 -0.096541423    0.6791609     1.168371   -5.7367087    6.4158696    1.8475319 
 5710000   0.79974384 -0.077867377   0.68468964    1.1630908   -5.7276578    6.4123474    1.8477804 
 5720000   0.79830929  -0.12889322   0.68007462    1.1610045   -5.7341623     6.414237    1.8410791 
 5730000   0.79603928  -0.14655547   0.68263357    1.1577031   -5.7324138    6.4150474    1.8403367 
 5740000   0.80515144 -0.037709934   0.69443228    1.1709552   -5.7221437    6.4165759    1.8653875 
 5750000   0.80053378 -0.067228798    0.6895156    1.1642396   -5.7291928    6.4187084    1.8537552 
 5760000   0.79212966  -0.10835608   0.68869984    1.1520173   -5.7286692     6.417369    1.8407171 
 5770000   0.79482545  -0.11280057   0.68996029    1.1559378   -5.7277368    6.4176971    1.8458981 
 5780000   0.79519091  -0.11270744   0.68641967    1.1564693   -5.7297989    6.4162185     1.842889 
 5790000   0.80782261 -0.081018539   0.69280009      1.17484   -5.7231765    6.4159766    1.8676401 
 5800000   0.79503424 -0.098785837   0.68079578    1.1562415   -5.7319227    6.4127185    1.8370373 
 5810000   0.80708513  -0.10969167   0.67860762    1.1737674   -5.7383606    6.4169682    1.8523751 
 5820000   0.80011794  -0.18417776   0.67743095    1.1636349   -5.7360997    6.4135307    1.8410658 
 5830000   0.80315326  -0.10679868    0.6801479    1.1680492   -5.7337254    6.4138733    1.8481971 
 5840000   0.79722149  -0.13969048   0.68389871    1.1594225   -5.7343268    6.4182255    1.8433212 
 5850000   0.80525873  -0.13947718   0.68235789    1.1711113   -5.7333886    6.4157465    1.8534691 
 5860000   0.80154835   -0.1640014   0.67505205    1.1657151   -5.7384104    6.4134624    1.8407672 
 5870000   0.79896777    -0.190955   0.68223479    1.1619621   -5.7332335    6.4154683    1.8441969 
 5880000   0.79236393 -0.088648052   0.68341521     1.152358    -5.731547    6.4149622    1.8357732 
 5890000   0.80182473 -0.095102955   0.68343702    1.1661171   -5.7319904    6.4154274    1.8495541 
 5900000    0.7990783   -0.1155238   0.68253067    1.1621229   -5.7322782    6.4148089    1.8446535 
 5910000   0.79471505 -0.084359036   0.68760885    1.1557773   -5.7278898    6.4154987    1.8433861 
 5920000   0.80318504 -0.096958045   0.68767874    1.1680954   -5.7283791    6.4160578    1.8557742 
 5930000   0.80124777  -0.14405536   0.68741785     1.165278   -5.7308899    6.4183077    1.8526958 
 5940000    0.8002995   -0.1441407   0.68295095    1.1638989   -5.7321614    6.4151123    1.8468499 
 5950000    0.8094482  -0.13513015   0.67538724    1.1772041   -5.7397492    6.4151365    1.8525914 
 5960000   0.79630751  -0.11380648   0.68034824    1.1580932   -5.7340314    6.4143797    1.8384415 
 5970000   0.80276279  -0.15062776   0.67092937    1.1674813   -5.7422056     6.413135    1.8384107 
 5980000   0.80833195  -0.18745537   0.68263562    1.1755807   -5.7327267    6.4153623    1.8582163 
 5990000   0.80233182 -0.088417016   0.67635988    1.1668546   -5.7388005    6.4151604    1.8432145 
 6000000   0.79541083 -0.099345019   0.68203875    1.1567892   -5.7297495    6.4117883    1.8388279 
Loop time of 48654.8 on 216 procs for 6000000 steps with 27950 atoms

Performance: 53273.256 tau/day, 123.318 timesteps/s
99.9% CPU use with 216 MPI tasks x 1 OpenMP threads

MPI task timing breakdown:
Section |  min time  |  avg time  |  max time  |%varavg| %total
---------------------------------------------------------------
Pair    | 576.94     | 710.55     | 912.72     | 241.2 |  1.46
Bond    | 10.392     | 16.207     | 25.113     |  59.0 |  0.03
Kspace  | 42452      | 42714      | 42927      |  42.7 | 87.79
Neigh   | 709.69     | 742.03     | 786.15     |  63.0 |  1.53
Comm    | 1251.5     | 1493.2     | 1723.4     | 323.4 |  3.07
Output  | 2.5441     | 2.5939     | 2.6048     |   0.4 |  0.01
Modify  | 2426.2     | 2566.2     | 2755       | 151.3 |  5.27
Other   |            | 410.3      |            |       |  0.84

Nlocal:    129.398 ave 193 max 107 min
Histogram: 28 80 44 25 10 11 8 8 1 1
Nghost:    958.093 ave 1123 max 845 min
Histogram: 10 41 39 27 25 23 23 12 9 7
Neighs:    4808.33 ave 9679 max 3404 min
Histogram: 60 70 35 14 12 13 5 5 1 1

Total # of neighbors = 1038600
Ave neighs/atom = 37.1592
Ave special neighs/atom = 0.62254
Neighbor list builds = 806792
Dangerous builds = 0
System init for write_restart ...
PPPM initialization ...
  using 12-bit tables for long-range coulomb (src/kspace.cpp:332)
  G vector (1/distance) = 1.11672
  grid = 81 81 81
  stencil order = 5
  estimated absolute RMS force accuracy = 0.000130558
  estimated relative force accuracy = 0.000130558
  using double precision FFTW3
  3d grid and FFT values/proc = 6859 2835
WARNING: Neighbor exclusions used with KSpace solver may give inconsistent Coulombic energies (src/neighbor.cpp:486)
Neighbor list info ...
  update every 1 steps, delay 0 steps, check yes
  max neighbors/atom: 2000, page size: 100000
  master list distance cutoff = 2.8
  ghost atom cutoff = 2.8
  binsize = 1.4, bins = 24 24 24
  12 neighbor lists, perpetual/occasional/extra = 2 10 0
  (1) pair lj/cut, perpetual
      attributes: half, newton on
      pair build: half/bin/newton
      stencil: half/bin/3d/newton
      bin: standard
  (2) pair coul/long, perpetual, skip from (1)
      attributes: half, newton on
      pair build: skip
      stencil: none
      bin: none
  (3) compute rdf, occasional, copy from (1)
      attributes: half, newton on
      pair build: copy
      stencil: none
      bin: none
  (4) compute rdf, occasional, copy from (1)
      attributes: half, newton on
      pair build: copy
      stencil: none
      bin: none
  (5) compute rdf, occasional, copy from (1)
      attributes: half, newton on
      pair build: copy
      stencil: none
      bin: none
  (6) compute rdf, occasional, copy from (1)
      attributes: half, newton on
      pair build: copy
      stencil: none
      bin: none
  (7) compute rdf, occasional, copy from (1)
      attributes: half, newton on
      pair build: copy
      stencil: none
      bin: none
  (8) compute rdf, occasional, copy from (1)
      attributes: half, newton on
      pair build: copy
      stencil: none
      bin: none
  (9) compute rdf, occasional, copy from (1)
      attributes: half, newton on
      pair build: copy
      stencil: none
      bin: none
  (10) compute rdf, occasional, copy from (1)
      attributes: half, newton on
      pair build: copy
      stencil: none
      bin: none
  (11) compute rdf, occasional, copy from (1)
      attributes: half, newton on
      pair build: copy
      stencil: none
      bin: none
  (12) compute rdf, occasional, copy from (1)
      attributes: half, newton on
      pair build: copy
      stencil: none
      bin: none
PPPM initialization ...
  using 12-bit tables for long-range coulomb (src/kspace.cpp:332)
  G vector (1/distance) = 1.11672
  grid = 81 81 81
  stencil order = 5
  estimated absolute RMS force accuracy = 0.000130558
  estimated relative force accuracy = 0.000130558
  using double precision FFTW3
  3d grid and FFT values/proc = 6859 2835
WARNING: Neighbor exclusions used with KSpace solver may give inconsistent Coulombic energies (src/neighbor.cpp:486)
Neighbor list info ...
  update every 1 steps, delay 0 steps, check yes
  max neighbors/atom: 2000, page size: 100000
  master list distance cutoff = 2.8
  ghost atom cutoff = 2.8
  binsize = 1.4, bins = 24 24 24
  12 neighbor lists, perpetual/occasional/extra = 2 10 0
  (1) pair lj/cut, perpetual
      attributes: half, newton on
      pair build: half/bin/newton
      stencil: half/bin/3d/newton
      bin: standard
  (2) pair coul/long, perpetual, skip from (1)
      attributes: half, newton on
      pair build: skip
      stencil: none
      bin: none
  (3) compute rdf, occasional, copy from (1)
      attributes: half, newton on
      pair build: copy
      stencil: none
      bin: none
  (4) compute rdf, occasional, copy from (1)
      attributes: half, newton on
      pair build: copy
      stencil: none
      bin: none
  (5) compute rdf, occasional, copy from (1)
      attributes: half, newton on
      pair build: copy
      stencil: none
      bin: none
  (6) compute rdf, occasional, copy from (1)
      attributes: half, newton on
      pair build: copy
      stencil: none
      bin: none
  (7) compute rdf, occasional, copy from (1)
      attributes: half, newton on
      pair build: copy
      stencil: none
      bin: none
  (8) compute rdf, occasional, copy from (1)
      attributes: half, newton on
      pair build: copy
      stencil: none
      bin: none
  (9) compute rdf, occasional, copy from (1)
      attributes: half, newton on
      pair build: copy
      stencil: none
      bin: none
  (10) compute rdf, occasional, copy from (1)
      attributes: half, newton on
      pair build: copy
      stencil: none
      bin: none
  (11) compute rdf, occasional, copy from (1)
      attributes: half, newton on
      pair build: copy
      stencil: none
      bin: none
  (12) compute rdf, occasional, copy from (1)
      attributes: half, newton on
      pair build: copy
      stencil: none
      bin: none
Setting up Verlet run ...
  Unit style    : lj
  Current step  : 6000000
  Time step     : 0.005
Per MPI rank memory allocation (min/avg/max) = 17.63 | 19.01 | 19.66 Mbytes
Step Lx Ly Lz Press Pxx Pyy Pzz PotEng Temp 
 6000000    32.531758    32.531758    32.531758  -0.11522374  -0.22091891   0.36721809   -0.4919704   0.68203875   0.79541083 
 6000010    33.182393     32.21124     32.21124 -0.019878033   -1.1441435   0.55576011   0.52874932   0.70047077   0.79786983 
 6000020    33.833029    31.900013    31.900013  0.045034838   -1.3983704   0.78917528   0.74429958   0.71619936   0.81951405 
 6000030    34.483664    31.597637    31.597637   0.10261655    -1.548177   0.91655897   0.93946769     0.741926   0.83793381 
 6000040    35.134299    31.303699    31.303699   0.16349926   -1.6142984     1.075659    1.0291372    0.7693566   0.85802957 
 6000050    35.784934    31.017814    31.017814   0.23061145   -1.4721009    1.1419083     1.022027   0.79463995   0.87856105 
 6000060    36.435569    30.739622    30.739622   0.35056379   -1.3333983    1.1921016    1.1929881   0.81754508   0.89762259 
 6000070    37.086204    30.468783    30.468783   0.50899086   -1.2408943    1.3983667    1.3695002   0.84110966   0.91624098 
 6000080     37.73684    30.204979    30.204979    0.6363412   -1.0764828    1.4970597    1.4884467   0.85879916   0.93783711 
 6000090    38.387475    29.947911    29.947911   0.72274261  -0.95374637    1.5451849    1.5767893   0.87849185   0.95662043 
 6000100     39.03811    29.697296    29.697296   0.72402693  -0.95661376    1.5769616    1.5517329   0.89926763    0.9724736 
Loop time of 1.13605 on 216 procs for 100 steps with 27950 atoms

Performance: 38026.508 tau/day, 88.024 timesteps/s
99.9% CPU use with 216 MPI tasks x 1 OpenMP threads

MPI task timing breakdown:
Section |  min time  |  avg time  |  max time  |%varavg| %total
---------------------------------------------------------------
Pair    | 0.0072451  | 0.01132    | 0.026477   |   3.8 |  1.00
Bond    | 2.861e-05  | 0.00021076 | 0.00054932 |   0.0 |  0.02
Kspace  | 0.80009    | 0.82513    | 0.84072    |   0.8 | 72.63
Neigh   | 0.039762   | 0.042272   | 0.044998   |   0.6 |  3.72
Comm    | 0.033705   | 0.045006   | 0.071347   |   4.4 |  3.96
Output  | 0.0050449  | 0.0083266  | 0.01138    |   1.1 |  0.73
Modify  | 0.090103   | 0.11787    | 0.14869    |   3.2 | 10.38
Other   |            | 0.08592    |            |       |  7.56

Nlocal:    129.398 ave 188 max 109 min
Histogram: 31 72 55 18 9 13 7 5 4 2
Nghost:    963.454 ave 1128 max 841 min
Histogram: 6 36 34 36 21 37 12 18 6 10
Neighs:    4822.94 ave 9254 max 3485 min
Histogram: 65 63 36 12 11 15 4 6 1 3

Total # of neighbors = 1041754
Ave neighs/atom = 37.2721
Ave special neighs/atom = 0.62254
Neighbor list builds = 49
Dangerous builds = 0
PPPM initialization ...
  using 12-bit tables for long-range coulomb (src/kspace.cpp:332)
  G vector (1/distance) = 1.13018
  grid = 96 80 80
  stencil order = 5
  estimated absolute RMS force accuracy = 0.000106369
  estimated relative force accuracy = 0.000106369
  using double precision FFTW3
  3d grid and FFT values/proc = 7581 3360
WARNING: Neighbor exclusions used with KSpace solver may give inconsistent Coulombic energies (src/neighbor.cpp:486)
Neighbor list info ...
  update every 1 steps, delay 0 steps, check yes
  max neighbors/atom: 2000, page size: 100000
  master list distance cutoff = 2.8
  ghost atom cutoff = 2.8
  binsize = 1.4, bins = 28 22 22
  12 neighbor lists, perpetual/occasional/extra = 2 10 0
  (1) pair lj/cut, perpetual
      attributes: half, newton on
      pair build: half/bin/newton
      stencil: half/bin/3d/newton
      bin: standard
  (2) pair coul/long, perpetual, skip from (1)
      attributes: half, newton on
      pair build: skip
      stencil: none
      bin: none
  (3) compute rdf, occasional, copy from (1)
      attributes: half, newton on
      pair build: copy
      stencil: none
      bin: none
  (4) compute rdf, occasional, copy from (1)
      attributes: half, newton on
      pair build: copy
      stencil: none
      bin: none
  (5) compute rdf, occasional, copy from (1)
      attributes: half, newton on
      pair build: copy
      stencil: none
      bin: none
  (6) compute rdf, occasional, copy from (1)
      attributes: half, newton on
      pair build: copy
      stencil: none
      bin: none
  (7) compute rdf, occasional, copy from (1)
      attributes: half, newton on
      pair build: copy
      stencil: none
      bin: none
  (8) compute rdf, occasional, copy from (1)
      attributes: half, newton on
      pair build: copy
      stencil: none
      bin: none
  (9) compute rdf, occasional, copy from (1)
      attributes: half, newton on
      pair build: copy
      stencil: none
      bin: none
  (10) compute rdf, occasional, copy from (1)
      attributes: half, newton on
      pair build: copy
      stencil: none
      bin: none
  (11) compute rdf, occasional, copy from (1)
      attributes: half, newton on
      pair build: copy
      stencil: none
      bin: none
  (12) compute rdf, occasional, copy from (1)
      attributes: half, newton on
      pair build: copy
      stencil: none
      bin: none
Setting up Verlet run ...
  Unit style    : lj
  Current step  : 6000100
  Time step     : 0.005
Per MPI rank memory allocation (min/avg/max) = 17.69 | 19.07 | 19.74 Mbytes
Step Lx Ly Lz Press Pxx Pyy Pzz PotEng Temp 
 6000100     39.03811    29.697296    29.697296   0.23157168   -1.5042725    1.1615644    1.0374232   0.90474382    0.9724736 
 6010000     39.03811    29.697296    29.697296 -0.079149223  -0.11558238 -0.042205824 -0.079659463   0.69562444   0.79584978 
 6020000     39.03811    29.697296    29.697296  -0.11930134  -0.12412862 -0.030368209  -0.20340719   0.68714948     0.792206 
 6030000     39.03811    29.697296    29.697296 -0.040841408 -0.051066865  0.025540361 -0.096997721   0.69444774   0.79501005 
 6040000     39.03811    29.697296    29.697296  -0.10734326   -0.1612715  -0.10886575 -0.051892527   0.68811951   0.79742722 
 6050000     39.03811    29.697296    29.697296 -0.060963152 -0.020265397 -0.062315866  -0.10030819    0.6833576   0.80616277 
 6060000     39.03811    29.697296    29.697296  -0.09922993 -0.094550701 -0.048115453  -0.15502364   0.68638451   0.80160715 
 6070000     39.03811    29.697296    29.697296 -0.053815496 -0.053840153 -0.074123478 -0.033482858   0.68806707   0.80200351 
 6080000     39.03811    29.697296    29.697296 -0.082532011 -0.069568867  -0.10740663 -0.070620533   0.69038916    0.8020998 
 6090000     39.03811    29.697296    29.697296  -0.13599371  -0.16083626  -0.16137534 -0.085769515   0.67626687   0.79775727 
 6100000     39.03811    29.697296    29.697296  -0.14542288  -0.11029796  -0.10776272  -0.21820796   0.67304375    0.8014814 
 6100100     39.03811    29.697296    29.697296 -0.064703764 -0.030717269 -0.056940105  -0.10645392   0.68098556   0.79232911 
Loop time of 848.157 on 216 procs for 100000 steps with 27950 atoms

Performance: 50933.953 tau/day, 117.903 timesteps/s
99.9% CPU use with 216 MPI tasks x 1 OpenMP threads

MPI task timing breakdown:
Section |  min time  |  avg time  |  max time  |%varavg| %total
---------------------------------------------------------------
Pair    | 7.7422     | 11.384     | 26.1       | 115.9 |  1.34
Bond    | 0.0567     | 0.22595    | 0.56305    |  24.6 |  0.03
Kspace  | 732.67     | 756.86     | 766.73     |  21.8 | 89.24
Neigh   | 11.141     | 11.802     | 12.568     |   9.1 |  1.39
Comm    | 21.87      | 30.232     | 42.19      |  87.4 |  3.56
Output  | 0.043703   | 0.043755   | 0.044694   |   0.0 |  0.01
Modify  | 23.002     | 29.205     | 34.594     |  40.9 |  3.44
Other   |            | 8.408      |            |       |  0.99

Nlocal:    129.398 ave 184 max 105 min
Histogram: 18 50 62 33 20 14 5 3 3 8
Nghost:    963.819 ave 1152 max 846 min
Histogram: 18 36 42 33 24 18 16 17 5 7
Neighs:    4807.02 ave 8851 max 3171 min
Histogram: 26 70 44 19 26 14 4 4 3 6

Total # of neighbors = 1038317
Ave neighs/atom = 37.1491
Ave special neighs/atom = 0.62254
Neighbor list builds = 13448
Dangerous builds = 0
Total wall time: 15:57:46
