ITEM: TIMESTEP
0
ITEM: NUMBER OF ATOMS
950
ITEM: BOX BOUNDS pp pp pp
7.3412088962025734e-01 3.3265879110386273e+01
7.3412088962025734e-01 3.3265879110386273e+01
7.3412088962025734e-01 3.3265879110386273e+01
ITEM: ATOMS id mol type x y z 
19270 0 5 5.4755 2.09883 2.21518 
22000 0 5 1.71159 5.09101 2.10453 
19896 0 5 2.27895 6.02376 2.1473 
3472 0 5 1.25444 4.32888 2.67324 
26261 0 5 2.21126 0.812142 6.1369 
4593 0 5 4.40751 1.07686 4.8681 
22014 0 5 5.00076 5.46765 5.66216 
26872 0 5 4.95432 2.32067 7.14146 
21507 0 5 5.91828 4.03764 7.30332 
26450 0 5 6.00621 5.30485 6.3201 
26379 0 5 4.69316 2.61426 8.25914 
15858 0 5 4.66857 5.53673 8.28797 
24377 0 5 1.13035 3.71818 11.2493 
12132 0 5 3.06461 2.85613 11.1538 
21018 0 5 3.77276 4.79636 10.4027 
4653 0 5 2.29806 1.79761 12.01 
19882 0 5 3.28922 2.45048 12.6673 
14967 0 5 0.991717 1.31945 14.9119 
7219 0 5 1.16005 3.40053 13.3959 
4890 0 5 1.15303 5.01118 14.3209 
17547 0 5 3.04709 4.57805 13.5309 
12535 0 5 2.80029 1.22641 16.3827 
6838 0 5 2.2163 4.16419 15.5866 
11423 0 5 0.83623 1.98735 17.3259 
23450 0 5 3.91078 4.10161 25.4729 
5428 0 5 5.34864 3.70194 25.1191 
25633 0 5 1.46179 4.96881 25.7386 
3919 0 5 3.27468 1.72497 26.778 
7442 0 5 6.01729 5.50481 26.8815 
3984 0 5 4.42172 0.783259 28.5619 
4877 0 5 1.65669 3.1481 29.2555 
21145 0 5 1.90785 2.25371 29.6977 
13757 0 5 5.02522 1.20317 30.1386 
23619 0 5 3.07634 3.66495 31.4093 
18804 0 5 3.42476 5.02432 30.9612 
26234 0 5 3.44829 1.23377 32.0324 
24955 0 5 1.20125 6.53927 1.23383 
26651 0 5 3.02656 10.1167 1.74382 
2833 0 5 2.20981 7.89436 2.85949 
23638 0 5 3.3382 6.93823 3.23637 
19615 0 5 4.67939 8.77912 4.13645 
23768 0 5 6.147 8.83789 3.78801 
9085 0 5 1.31164 11.4431 3.52326 
24860 0 5 1.67335 6.58829 4.35788 
20075 0 5 3.50505 7.30816 4.56457 
7888 0 5 2.49813 11.05 5.11477 
15182 0 5 2.63434 10.0361 5.67202 
21912 0 5 2.70363 8.40887 7.25788 
25279 0 5 4.48323 8.76485 6.90016 
22940 0 5 0.876032 10.0989 6.73393 
10812 0 5 3.19403 11.1243 7.16398 
18536 0 5 3.95296 10.9018 11.4911 
203 0 5 0.771258 9.00498 12.7302 
8162 0 5 1.0569 10.884 11.6807 
10097 0 5 4.6902 11.3626 13.3445 
11172 0 5 4.11982 7.75313 13.8997 
18009 0 5 3.06056 10.4371 14.9914 
3022 0 5 2.94726 8.91613 16.9923 
17175 0 5 4.63717 9.15184 15.4854 
12498 0 5 5.7743 9.15704 17.9785 
15435 0 5 3.31497 8.69955 22.0317 
9540 0 5 5.54594 8.22908 21.947 
26572 0 5 1.36819 11.2191 21.453 
12298 0 5 1.94643 10.325 21.343 
963 0 5 1.01586 10.6163 22.5529 
15813 0 5 5.32378 10.2365 22.9174 
20041 0 5 4.22521 8.55103 25.8083 
361 0 5 1.42273 9.46271 27.4287 
488 0 5 5.66854 9.15293 27.1947 
3985 0 5 2.72016 7.51131 27.924 
19354 0 5 3.98921 7.18553 31.9422 
4165 0 5 5.364 8.65609 32.8344 
21180 0 5 1.02667 11.0768 32.6419 
24786 0 5 4.08421 13.7544 2.24189 
23487 0 5 2.99526 16.9024 1.79209 
21551 0 5 1.33396 15.6011 2.66266 
21076 0 5 3.23733 16.0383 3.56115 
20999 0 5 4.28959 13.7594 6.05542 
308 0 5 3.17009 14.7877 6.88153 
1493 0 5 1.97856 13.9215 8.342 
4691 0 5 5.68288 13.3028 11.4398 
10801 0 5 1.58015 14.6948 9.90331 
10529 0 5 2.28954 16.1354 11.4062 
16829 0 5 1.47144 15.4434 11.2463 
20441 0 5 4.00565 15.621 10.9804 
15226 0 5 3.62277 15.8592 13.1423 
22274 0 5 3.7211 15.1625 15.3093 
24347 0 5 3.57969 12.1654 20.2944 
17568 0 5 5.88471 13.4424 19.4418 
4071 0 5 1.10898 16.2838 20.5897 
1874 0 5 3.85334 15.2465 19.732 
19801 0 5 6.04683 11.6297 20.6293 
4424 0 5 1.48366 14.4 22.1231 
12487 0 5 2.39418 14.2352 21.5047 
17273 0 5 3.89338 16.4983 22.782 
2969 0 5 2.65209 12.2167 25.4978 
16687 0 5 0.774514 14.8389 25.4654 
3408 0 5 2.97872 15.9211 24.8987 
26665 0 5 4.32097 15.733 27.1924 
15883 0 5 2.72087 13.2627 29.5063 
6325 0 5 3.92781 12.3052 29.5972 
6248 0 5 3.35808 11.5897 28.1066 
24790 0 5 6.11532 13.528 28.5409 
4330 0 5 3.63994 16.1162 29.3194 
4056 0 5 5.56742 16.768 29.3684 
13479 0 5 3.9971 13.6362 30.5928 
19751 0 5 4.11562 14.8452 31.0395 
6072 0 5 3.88254 17.2817 0.737927 
25680 0 5 2.19571 18.8678 1.74212 
19738 0 5 2.55815 18.72 3.05374 
9640 0 5 5.51065 17.2449 3.13461 
22441 0 5 3.15383 20.2226 3.13339 
13205 0 5 1.97579 17.2926 6.26607 
8307 0 5 4.68202 17.563 7.11011 
13681 0 5 3.49274 19.076 7.07755 
23394 0 5 1.65393 22.222 6.75859 
3857 0 5 1.52434 17.6125 7.96388 
11223 0 5 0.956302 17.7039 8.8625 
15083 0 5 2.75849 17.0688 9.39353 
10772 0 5 4.17918 17.9554 10.0386 
21599 0 5 3.2781 21.316 10.2551 
19248 0 5 1.49792 19.2772 12.0487 
975 0 5 5.60956 21.8224 13.2243 
21067 0 5 5.50596 20.3157 14.9934 
3618 0 5 1.42276 21.4357 14.5572 
23824 0 5 1.30136 20.0967 16.9642 
19847 0 5 2.96074 19.1454 17.2254 
10040 0 5 5.29569 21.5836 18.3095 
5674 0 5 3.3993 21.2186 19.5223 
6497 0 5 3.43314 18.7397 20.8227 
4928 0 5 2.25106 22.2711 23.9538 
2536 0 5 1.79744 17.6503 25.5306 
18974 0 5 4.46238 17.4538 25.4237 
15092 0 5 5.72705 19.1743 25.0006 
1662 0 5 0.934796 17.6805 27.1166 
51 0 5 2.85963 17.8658 27.7942 
6655 0 5 0.888857 17.6739 30.0215 
7240 0 5 1.59513 18.4983 32.4572 
17691 0 5 1.84174 20.994 33.16 
5699 0 5 2.00438 27.7205 1.83116 
4432 0 5 1.663 23.7873 3.70927 
21926 0 5 3.38416 23.533 4.30068 
7555 0 5 2.26741 25.6032 4.33146 
8411 0 5 1.00488 27.5343 2.68875 
1284 0 5 0.788625 26.5958 3.11613 
25834 0 5 5.87118 26.3478 4.54178 
3453 0 5 3.57152 23.9759 6.36075 
23880 0 5 4.45932 25.8742 6.34741 
14406 0 5 6.07058 24.4188 7.147 
25244 0 5 2.32379 26.1987 6.63139 
4282 0 5 5.47539 27.6963 7.10826 
8014 0 5 5.51094 23.0848 8.56019 
19680 0 5 6.15203 26.2761 9.06497 
618 0 5 1.04488 23.8038 10.565 
26734 0 5 5.01675 22.7591 11.0166 
20243 0 5 5.7612 23.4512 10.8302 
15256 0 5 4.63468 24.5932 10.5337 
26861 0 5 2.39876 27.3976 10.812 
1177 0 5 4.48645 26.3903 10.2503 
9697 0 5 2.14351 24.0844 12.9176 
16581 0 5 1.52206 22.9822 13.3124 
20434 0 5 4.71351 24.5208 12.2893 
4311 0 5 3.9877 23.2628 14.0479 
17321 0 5 4.62298 24.5751 13.8608 
2312 0 5 3.88946 26.993 14.93 
14161 0 5 2.48915 23.0603 16.9738 
5356 0 5 4.15234 26.7945 16.4839 
5739 0 5 1.04512 23.5999 19.2218 
11127 0 5 2.54273 25.1911 19.0861 
11229 0 5 5.15649 27.4243 19.8783 
10894 0 5 5.83091 26.142 20.9488 
5067 0 5 1.62964 23.9234 24.2492 
13340 0 5 1.17697 23.459 25.824 
12465 0 5 4.53876 22.4968 24.4841 
21785 0 5 1.77633 26.7023 29.5967 
21017 0 5 2.55099 26.7814 28.608 
10888 0 5 4.94491 27.8214 28.234 
6755 0 5 2.98018 26.3559 29.7421 
11932 0 5 4.73888 28.4276 1.0054 
4495 0 5 1.9513 28.9073 4.09543 
18572 0 5 1.05794 28.513 3.54755 
22089 0 5 1.45421 32.174 5.07965 
16561 0 5 3.46767 33.033 4.66945 
19208 0 5 4.89034 32.4554 5.45226 
818 0 5 5.75775 32.1448 5.98829 
21134 0 5 4.64036 28.5892 6.9867 
14622 0 5 5.88877 29.4424 6.53594 
14483 0 5 1.75399 32.934 7.97329 
3279 0 5 4.5815 31.3653 10.6612 
19310 0 5 2.38786 32.9234 9.98309 
18394 0 5 1.26199 28.8509 11.9562 
24894 0 5 2.8503 29.3371 12.2412 
4708 0 5 3.02632 30.2476 11.646 
25885 0 5 1.16242 31.8287 12.9383 
23951 0 5 3.46048 33.0557 11.7512 
17115 0 5 5.01082 30.2021 13.6875 
15487 0 5 2.90423 32.1297 14.5185 
24006 0 5 4.34945 32.3992 13.5766 
15495 0 5 4.41969 28.1621 19.6482 
23537 0 5 5.46108 29.5545 22.1619 
18808 0 5 4.72027 29.4121 27.3999 
19138 0 5 5.19468 33.0822 27.6527 
9526 0 5 4.21222 27.9831 29.3504 
18239 0 5 2.76193 29.1345 27.9943 
11002 0 5 3.73474 31.4317 28.8568 
3811 0 5 4.59377 29.8759 28.3639 
21900 0 5 5.09994 28.4214 31.582 
10989 0 5 2.62453 31.7251 31.5297 
1309 0 5 10.5507 3.45459 2.22927 
4502 0 5 9.36847 5.63971 2.66213 
11765 0 5 11.4649 5.0137 3.68535 
1330 0 5 8.02041 3.38489 6.05342 
12081 0 5 9.84635 4.50222 6.02276 
20050 0 5 11.1111 0.783318 6.89047 
18507 0 5 7.84746 4.62169 7.5764 
4790 0 5 9.31432 2.63775 8.97184 
26840 0 5 8.8849 5.2423 8.09885 
7088 0 5 11.578 0.964536 13.0701 
10403 0 5 6.68795 2.86313 12.6759 
15031 0 5 7.21806 3.94361 13.0134 
13697 0 5 7.36784 0.817923 13.9457 
25238 0 5 7.48722 2.81544 13.6142 
10481 0 5 8.96662 0.815681 16.9235 
15482 0 5 9.16371 1.99182 20.1428 
17105 0 5 9.92159 1.49572 20.8299 
18033 0 5 8.86369 5.1711 23.2011 
11400 0 5 9.68525 4.64176 23.7276 
3124 0 5 6.20365 1.69755 24.973 
22640 0 5 9.17315 3.84579 25.5216 
8059 0 5 6.79758 2.57282 26.493 
20706 0 5 8.88348 1.81917 28.7116 
9707 0 5 7.55876 4.75916 29.0305 
20356 0 5 9.23923 1.52276 31.1391 
26257 0 5 6.45064 3.48743 30.9044 
8609 0 5 8.83009 3.23718 31.416 
20037 0 5 11.2545 2.76361 30.0531 
23780 0 5 8.18053 4.43862 31.1119 
6144 0 5 9.0612 8.07565 2.07896 
3806 0 5 7.56734 10.0741 0.862718 
8807 0 5 7.57522 9.88787 2.49064 
7227 0 5 11.2071 10.2122 1.02776 
9074 0 5 8.3919 7.02593 3.5828 
18296 0 5 8.20352 6.25184 5.41723 
14168 0 5 9.21024 10.668 6.09164 
23896 0 5 8.63524 9.86078 4.88788 
12005 0 5 7.57986 8.37289 7.74018 
16704 0 5 7.04092 6.38111 8.5004 
6728 0 5 6.98643 10.5375 9.5009 
4807 0 5 9.50727 7.26113 13.9225 
21528 0 5 10.4799 9.38974 17.1277 
20722 0 5 8.13434 11.5662 19.9728 
14127 0 5 11.3743 7.16752 21.3401 
10134 0 5 6.6733 9.35657 22.009 
2397 0 5 9.96729 9.8899 21.578 
16356 0 5 6.27852 6.41833 22.8183 
21588 0 5 8.62058 6.16998 23.2073 
7756 0 5 7.30473 10.6994 22.8327 
22391 0 5 9.4503 6.53469 25.1484 
16531 0 5 6.19382 9.96649 24.9571 
6664 0 5 8.49398 8.06785 26.38 
6557 0 5 6.41591 11.274 26.3863 
13913 0 5 8.31975 11.3646 28.7821 
2283 0 5 6.96926 7.85698 30.5613 
13714 0 5 11.1647 10.6936 30.2835 
5778 0 5 6.9665 6.20589 33.023 
21546 0 5 9.54633 7.68955 32.5532 
9115 0 5 6.80766 9.94297 32.6457 
12119 0 5 10.2916 10.2522 31.5947 
8873 0 5 11.271 12.8861 1.67258 
17721 0 5 9.56275 14.0105 1.31099 
11066 0 5 7.37858 16.1081 3.43058 
14931 0 5 8.88997 16.4249 4.22995 
6403 0 5 7.1194 13.4941 5.13092 
18181 0 5 9.23027 14.4969 5.51833 
1666 0 5 8.65314 15.6107 5.0054 
18798 0 5 11.3255 11.8714 6.77157 
26916 0 5 7.49867 14.1521 9.23538 
24240 0 5 7.14378 13.4902 11.2332 
3066 0 5 8.85685 14.2332 10.3529 
5036 0 5 9.01186 16.7312 10.9217 
20372 0 5 9.66901 16.3992 11.6715 
217 0 5 10.8427 15.2156 12.337 
24329 0 5 7.08551 12.0795 16.7505 
18099 0 5 10.0382 12.5666 16.4239 
1482 0 5 8.39158 14.0669 15.662 
23845 0 5 11.0956 13.5834 15.7636 
25202 0 5 8.79743 16.3467 15.5071 
22653 0 5 11.0992 16.5146 15.5974 
20430 0 5 10.0286 13.364 19.5614 
26143 0 5 6.49746 16.753 19.9993 
24376 0 5 9.47133 11.8127 22.2435 
22968 0 5 6.87953 14.8906 22.3201 
10378 0 5 8.40066 16.6815 21.5025 
7860 0 5 9.27117 12.2433 23.7107 
10439 0 5 7.04669 14.8011 23.4077 
2908 0 5 10.5651 14.5038 22.5618 
14189 0 5 9.55087 16.2102 22.5711 
23827 0 5 10.3827 13.0415 25.5025 
8861 0 5 9.53837 15.0569 24.407 
1610 0 5 11.3114 14.0356 25.3746 
3560 0 5 6.43757 16.0498 24.9382 
15525 0 5 8.56874 15.4795 24.859 
1048 0 5 9.18615 16.6004 25.587 
26382 0 5 6.18823 13.0559 26.6686 
23510 0 5 7.65494 12.5683 28.9366 
18902 0 5 11.1748 11.7942 29.5256 
19406 0 5 10.4022 12.1759 28.9499 
3893 0 5 6.80045 15.1449 30.0198 
21567 0 5 10.2676 13.4608 31.0249 
25177 0 5 7.9883 12.2783 33.215 
6861 0 5 6.84717 13.63 31.843 
16554 0 5 7.40108 14.4078 32.6115 
21158 0 5 11.0533 17.6321 1.14403 
11700 0 5 9.55536 18.8191 2.0617 
4148 0 5 11.0096 18.6685 2.76603 
22632 0 5 7.94275 18.8404 2.57095 
12488 0 5 6.91833 18.377 6.79476 
1526 0 5 11.4549 19.1084 6.82248 
18857 0 5 10.9735 20.3134 8.13318 
21130 0 5 11.358 19.0654 8.67626 
26048 0 5 10.6598 22.2161 8.20689 
9410 0 5 8.73488 21.6594 12.6202 
17718 0 5 10.7627 21.5045 13.9299 
25330 0 5 7.24301 21.8754 15.7534 
2362 0 5 8.13619 19.3395 17.5982 
4306 0 5 7.28996 17.677 20.215 
6140 0 5 9.40685 17.8642 19.3711 
12122 0 5 10.8522 17.5616 20.5143 
11776 0 5 10.4686 19.1247 21.7428 
18178 0 5 8.13463 21.1674 21.7842 
23390 0 5 7.56524 17.8927 24.0567 
16501 0 5 9.18673 20.9901 23.6679 
15139 0 5 10.4672 19.5102 25.6007 
23953 0 5 10.3846 17.1992 27.5248 
18830 0 5 8.04131 20.5997 27.2484 
15834 0 5 6.2731 21.5938 27.2067 
19754 0 5 7.51827 21.7372 27.3756 
6851 0 5 10.5455 20.6691 27.2183 
16413 0 5 11.0178 22.0118 27.5703 
5662 0 5 10.2601 17.2402 30.2242 
4086 0 5 11.0192 24.5094 3.071 
23683 0 5 6.99525 27.7259 3.73595 
14314 0 5 10.3841 27.397 3.66106 
11432 0 5 8.99867 24.9176 4.8419 
4612 0 5 10.9567 25.3127 5.55975 
19809 0 5 6.51886 23.4887 8.68924 
7648 0 5 9.06006 25.2762 9.04165 
10588 0 5 6.39041 27.1612 9.67721 
14534 0 5 8.1615 26.4392 8.03636 
24393 0 5 7.07924 24.9922 11.9539 
17737 0 5 9.30001 25.4401 11.7651 
10804 0 5 7.61493 27.0343 14.6678 
25131 0 5 10.2906 22.6591 16.7295 
7854 0 5 11.0452 26.6489 15.939 
15876 0 5 9.9208 27.1925 19.2463 
13193 0 5 8.78671 27.3664 21.7313 
4700 0 5 6.53112 23.4761 23.742 
10709 0 5 9.3748 26.6559 22.4424 
3808 0 5 11.478 26.7543 23.1192 
24642 0 5 7.24587 23.4706 25.9681 
7501 0 5 8.93993 23.9968 25.6906 
23837 0 5 11.1462 25.1127 25.8576 
23636 0 5 6.37228 22.5066 27.7737 
2666 0 5 11.4737 24.2083 30.2119 
2856 0 5 7.78295 25.6656 30.1533 
1403 0 5 6.33943 24.5132 30.6403 
16206 0 5 9.66342 27.7818 32.7377 
6516 0 5 11.5532 26.6019 32.2768 
15928 0 5 8.73416 28.0522 1.49233 
7063 0 5 10.4327 28.1347 1.78515 
1934 0 5 10.9212 28.9988 2.44778 
6863 0 5 7.92684 31.2992 2.48599 
23264 0 5 7.16794 32.6824 2.64372 
3052 0 5 8.71404 32.5843 2.78827 
19458 0 5 9.2562 30.8268 5.52327 
15896 0 5 7.42961 33.0456 6.49299 
18093 0 5 9.89003 32.7647 8.33329 
1940 0 5 7.00907 28.8266 13.0325 
7105 0 5 8.72647 30.4392 12.7335 
19414 0 5 8.11682 30.8669 15.1487 
6737 0 5 7.58203 32.4767 13.4551 
21073 0 5 11.5677 29.2491 16.5108 
6751 0 5 10.9341 28.8221 15.2411 
13755 0 5 8.3925 31.2774 16.1214 
9011 0 5 8.31641 29.0462 18.6208 
17502 0 5 11.4313 30.1505 18.5087 
5337 0 5 7.53798 33.1754 17.7898 
17194 0 5 6.41225 31.9703 18.5935 
8924 0 5 11.3041 31.7598 18.4275 
25674 0 5 7.06029 29.0962 20.2194 
24257 0 5 8.94591 29.9826 19.7827 
16679 0 5 6.40052 29.4545 21.2241 
3383 0 5 9.76707 29.9096 22.7476 
5547 0 5 10.014 32.2942 24.182 
62 0 5 7.27575 29.4551 25.9407 
23781 0 5 11.1389 30.9476 29.399 
17707 0 5 8.18432 31.5578 28.1105 
17052 0 5 11.1655 33.06 30.9877 
12203 0 5 6.66465 29.73 32.699 
14321 0 5 13.203 3.40348 1.26055 
13422 0 5 14.9306 1.96922 5.30382 
6313 0 5 16.7283 1.36609 5.64399 
8409 0 5 13.023 5.24139 5.62282 
18485 0 5 15.6837 5.21178 6.63388 
20856 0 5 14.9212 0.86159 11.4006 
19749 0 5 13.5461 1.72387 12.0458 
14448 0 5 14.7256 1.05152 12.5201 
15409 0 5 16.3912 1.23194 12.0984 
17538 0 5 13.9107 1.48808 13.9979 
3097 0 5 12.5798 1.45329 16.212 
10831 0 5 13.2182 3.59798 16.0418 
12147 0 5 12.2268 5.63613 15.767 
10203 0 5 16.7515 5.15251 17.7699 
18598 0 5 14.1317 1.04473 18.8329 
22583 0 5 13.1997 3.23186 19.0307 
20630 0 5 15.7361 4.69876 19.9195 
20208 0 5 16.6667 4.12837 22.0034 
5421 0 5 16.2217 3.99276 21.1577 
25369 0 5 12.2541 1.25234 22.8698 
16098 0 5 14.9361 3.79967 22.9878 
21135 0 5 12.2902 3.22368 25.8111 
16421 0 5 12.1052 4.85093 25.4835 
10394 0 5 12.4546 1.73236 26.4157 
8007 0 5 14.3284 3.55605 29.767 
2410 0 5 16.8526 3.36808 31.0322 
23468 0 5 13.0818 5.34502 31.5717 
734 0 5 15.0785 4.55251 32.2104 
20494 0 5 16.3031 8.59912 1.10884 
26212 0 5 13.762 6.41478 4.95271 
23723 0 5 15.6302 8.2188 15.8796 
14486 0 5 12.8045 8.60454 19.0748 
18586 0 5 16.3607 8.99553 19.7451 
21958 0 5 15.6131 11.3716 21.8592 
1135 0 5 14.7218 7.88258 23.6985 
3342 0 5 13.1681 8.70975 23.4156 
24351 0 5 14.6163 6.26243 24.3205 
3718 0 5 14.4171 7.57541 26.229 
11135 0 5 14.844 7.90133 27.2867 
12884 0 5 16.125 9.79676 26.8338 
8280 0 5 12.0477 9.35188 29.3651 
23981 0 5 14.045 8.52581 28.7664 
13015 0 5 12.8314 10.448 29.0885 
15414 0 5 12.1197 7.15348 32.4976 
12584 0 5 15.9638 7.69014 32.9686 
14407 0 5 12.5276 9.6283 32.3999 
8209 0 5 13.608 9.47112 31.8564 
15547 0 5 14.2574 11.5563 32.9048 
21206 0 5 11.7593 13.966 3.88186 
20074 0 5 11.6045 16.5356 3.41927 
7566 0 5 13.3985 16.6669 5.99244 
2319 0 5 15.7569 13.7499 7.924 
18284 0 5 12.6898 13.7054 8.44498 
25939 0 5 15.9794 15.3414 8.88886 
16111 0 5 16.6886 13.2196 10.5197 
4925 0 5 15.5419 15.0161 9.78207 
12000 0 5 16.5499 15.7457 14.6211 
14544 0 5 14.1182 14.2088 16.7961 
18730 0 5 14.7062 16.33 15.2139 
10196 0 5 16.8865 15.7685 15.7342 
4695 0 5 12.3443 13.0874 18.547 
21784 0 5 11.8425 16.8929 18.038 
23871 0 5 14.9413 15.6694 18.7603 
21500 0 5 12.8745 14.0111 20.3611 
9350 0 5 14.3827 14.4541 19.9223 
22175 0 5 16.1145 14.0866 19.4831 
24635 0 5 16.4535 11.9726 22.3079 
22904 0 5 16.4341 12.6611 23.1415 
18505 0 5 12.4455 16.8866 23.4582 
14467 0 5 12.361 12.6903 24.9078 
24210 0 5 14.0494 12.0797 25.1252 
8408 0 5 16.7039 16.5991 24.6874 
25794 0 5 13.7838 14.8517 26.1006 
9201 0 5 14.1626 16.907 27.0502 
13012 0 5 13.7318 15.0166 28.6552 
614 0 5 15.6368 13.7422 28.7817 
5313 0 5 16.8046 13.7848 30.1837 
7428 0 5 11.8319 12.8123 31.6668 
24362 0 5 16.8875 11.9105 31.8174 
12953 0 5 14.6311 18.4941 1.11566 
26128 0 5 16.6228 18.1708 2.01906 
5727 0 5 16.4799 18.3165 3.09315 
25580 0 5 16.8217 17.3295 6.02527 
15728 0 5 16.8456 19.7606 4.94252 
13473 0 5 14.673 21.3275 4.8929 
7793 0 5 12.6728 18.5991 6.45027 
3100 0 5 14.372 17.2646 8.25085 
14183 0 5 15.5914 18.4602 8.65062 
16318 0 5 13.8552 19.3009 7.99635 
10930 0 5 11.735 21.6508 9.64644 
11448 0 5 13.7617 18.669 12.2041 
19412 0 5 15.6205 18.0362 12.24 
21790 0 5 14.8451 19.02 11.9109 
23874 0 5 15.7836 22.3715 11.6705 
23884 0 5 16.6583 21.1897 11.5796 
20481 0 5 15.6869 20.0639 13.8261 
1838 0 5 12.3021 18.579 16.9108 
5354 0 5 16.3628 18.2225 16.9485 
23017 0 5 12.2529 22.0484 16.3927 
25840 0 5 15.8358 21.9673 16.6651 
12463 0 5 12.9913 17.2647 17.9099 
10975 0 5 15.0515 17.7791 17.8858 
13765 0 5 16.7234 19.1705 17.8667 
10455 0 5 14.0076 18.3416 20.2149 
9246 0 5 13.3499 18.4598 25.7246 
18814 0 5 15.3503 17.893 26.7422 
22484 0 5 12.4927 18.8785 26.1884 
6121 0 5 12.0355 18.2689 30.3444 
9797 0 5 12.7816 20.4976 30.2562 
11056 0 5 12.3163 20.3107 31.2078 
6968 0 5 13.4811 19.5015 30.7764 
1011 0 5 11.7433 22.1528 30.0053 
8070 0 5 12.5966 17.2412 31.9342 
3120 0 5 13.4356 18.8585 32.6728 
2082 0 5 15.5568 22.8913 1.19916 
8952 0 5 15.9443 27.3367 1.54595 
26539 0 5 14.8869 27.7656 4.56244 
5078 0 5 15.3267 27.5181 7.91412 
9121 0 5 12.703 23.8778 11.3162 
24341 0 5 16.7946 24.8212 11.4917 
24251 0 5 12.9438 25.6232 13.212 
9876 0 5 12.6374 27.4656 13.3074 
22405 0 5 14.8738 26.8069 12.2233 
8916 0 5 14.8198 25.3878 14.7823 
14221 0 5 13.3758 27.5867 14.7605 
13907 0 5 12.0171 26.321 20.4728 
5412 0 5 15.1279 25.9605 22.8672 
22984 0 5 14.631 26.8579 25.14 
2718 0 5 12.7182 25.4136 32.0719 
23486 0 5 15.3252 26.2601 33.0658 
20655 0 5 14.0725 29.6125 7.22339 
25306 0 5 11.8644 30.7804 6.49952 
10986 0 5 13.6433 29.6143 9.76634 
26848 0 5 16.4262 28.7742 9.17432 
4853 0 5 15.6628 29.7375 9.0155 
10684 0 5 14.4174 33.0942 8.39857 
19451 0 5 16.333 32.2108 9.22735 
13579 0 5 13.4791 28.0401 12.6635 
25226 0 5 12.6099 31.1626 11.6153 
26563 0 5 16.0364 32.0361 12.3913 
14480 0 5 14.2242 28.1932 15.0663 
10783 0 5 12.3602 31.6591 14.0181 
25170 0 5 16.2436 31.3635 17.8448 
14730 0 5 13.0748 31.3028 21.6936 
8866 0 5 13.9193 30.1662 22.3379 
24063 0 5 16.2512 31.2936 20.9216 
11899 0 5 12.0557 31.6731 22.6309 
24490 0 5 12.9105 27.9546 24.2591 
6813 0 5 14.2741 31.1289 28.5177 
8753 0 5 12.301 29.6904 30.4539 
11626 0 5 20.84 2.92227 1.01435 
13637 0 5 19.081 1.9426 2.87885 
15546 0 5 17.0183 2.56551 5.73098 
22815 0 5 17.4537 5.43809 5.05678 
1863 0 5 17.6927 4.94309 6.14241 
9160 0 5 18.7984 5.98728 4.54396 
7033 0 5 20.521 5.55611 5.13893 
22659 0 5 17.8895 2.17544 9.21691 
9174 0 5 19.2963 4.97611 8.12047 
7765 0 5 18.3542 1.33126 9.85869 
13541 0 5 19.2844 1.86225 10.2923 
7058 0 5 20.3693 1.29697 13.2835 
19973 0 5 18.445 3.58739 12.2163 
9807 0 5 20.4325 2.52558 14.9102 
26117 0 5 19.8979 1.6479 14.7581 
5667 0 5 20.3268 5.97562 14.573 
16357 0 5 19.3558 5.95734 17.6612 
4104 0 5 20.3644 5.84765 17.1952 
5755 0 5 20.3912 4.62099 17.0206 
9411 0 5 19.9766 1.97502 19.6451 
21776 0 5 20.6199 3.20451 19.6362 
15777 0 5 18.6875 1.12964 21.5548 
14039 0 5 21.7342 3.02879 21.2211 
23721 0 5 20.1513 2.38392 23.7529 
24180 0 5 17.4405 5.70504 22.8188 
3977 0 5 21.9834 2.25641 24.3309 
5486 0 5 21.7434 4.15606 25.1669 
22396 0 5 17.0283 1.71187 26.431 
21163 0 5 19.77 3.54778 26.3775 
22843 0 5 18.5119 4.94813 28.1788 
24057 0 5 21.6274 1.55686 29.9884 
1023 0 5 18.3914 3.03867 30.103 
1461 0 5 20.2476 3.11699 31.874 
5781 0 5 19.5661 8.10408 5.93071 
13356 0 5 19.3531 9.79187 4.89908 
10510 0 5 17.8474 7.60949 6.9053 
947 0 5 19.7873 7.19901 6.31412 
19675 0 5 17.9454 7.20309 10.0053 
11262 0 5 18.7957 7.35065 12.6036 
3061 0 5 17.3411 11.1253 13.8753 
14081 0 5 21.3089 11.1322 14.9989 
824 0 5 18.6876 7.25542 17.1653 
22923 0 5 18.8566 9.67159 17.2592 
6196 0 5 22.2394 11.2029 18.2388 
16094 0 5 21.4795 10.0543 17.0379 
26960 0 5 17.5546 7.49499 19.3858 
2423 0 5 20.1116 7.90973 19.7763 
6626 0 5 17.1143 10.1992 19.1375 
7118 0 5 20.0584 9.29531 21.0945 
23402 0 5 21.4311 9.87588 20.8674 
12157 0 5 22.1223 10.4906 23.2143 
24777 0 5 20.8805 6.41251 28.5163 
1824 0 5 22.2318 9.47063 31.8309 
11107 0 5 18.2029 13.0935 3.1987 
6381 0 5 19.617 14.4244 4.35259 
11591 0 5 18.0848 16.4856 8.25838 
23312 0 5 17.6839 12.5143 11.841 
22492 0 5 20.4362 12.0605 11.8404 
12244 0 5 21.0097 15.9199 12.0678 
26820 0 5 18.3765 13.0255 14.8975 
25154 0 5 20.2531 14.9881 14.279 
26448 0 5 21.0659 11.8468 15.5949 
24258 0 5 18.1679 14.7812 16.0489 
16786 0 5 20.7943 12.0535 18.0103 
23516 0 5 17.5254 12.0298 19.4786 
738 0 5 19.7905 11.9779 21.5556 
18964 0 5 22.3365 16.8759 22.3297 
24699 0 5 20.1666 12.3324 24.2014 
1904 0 5 17.4095 15.0236 24.1473 
26339 0 5 18.8654 16.858 22.5696 
5870 0 5 18.3677 11.7716 24.3398 
10822 0 5 17.2916 11.7226 24.48 
21440 0 5 18.7195 16.9347 27.4401 
10052 0 5 17.2966 15.5714 26.8285 
17026 0 5 19.7921 12.4013 32.5018 
17277 0 5 18.4497 15.1986 32.5418 
10359 0 5 19.4759 16.5416 31.6052 
7101 0 5 19.1095 18.3869 1.59694 
17029 0 5 20.8304 19.528 1.65091 
13041 0 5 18.2254 17.3526 3.98237 
17332 0 5 17.3515 21.7413 4.22925 
26828 0 5 19.9217 21.1697 6.13129 
1853 0 5 18.3039 20.8463 8.56263 
3486 0 5 20.2687 21.2722 9.3172 
18672 0 5 18.7527 19.055 10.8177 
7283 0 5 21.7574 19.9041 10.6878 
461 0 5 17.3388 17.7761 12.3858 
20102 0 5 19.8367 21.0921 13.0225 
12371 0 5 19.9171 18.3718 14.1779 
23475 0 5 19.0813 21.599 13.8555 
25327 0 5 21.3719 20.804 14.8057 
6544 0 5 18.5614 17.0129 15.3302 
17815 0 5 21.8547 17.4664 15.9393 
5548 0 5 20.5326 20.0168 15.8091 
3629 0 5 21.6475 21.1318 26.2353 
13157 0 5 21.359 21.8488 29.5559 
7579 0 5 19.8025 19.3552 30.6745 
19133 0 5 20.8086 23.0702 1.77923 
6615 0 5 17.8441 23.9895 2.57956 
7024 0 5 19.1018 23.6323 3.71241 
23214 0 5 21.9127 25.9583 3.04675 
14748 0 5 20.0605 26.604 4.21963 
25339 0 5 18.2797 22.8522 5.9342 
8447 0 5 19.769 22.6835 5.8853 
13645 0 5 22.4162 23.7907 6.40408 
24772 0 5 18.0108 24.3372 7.0026 
16978 0 5 20.9738 26.0118 7.00781 
18483 0 5 18.4114 26.4461 6.77005 
7435 0 5 21.4646 24.7026 8.22189 
1593 0 5 20.1408 26.1879 11.5042 
20421 0 5 17.6619 22.4749 11.8029 
12517 0 5 20.4098 24.6579 11.8903 
25849 0 5 21.2134 24.8334 12.8292 
11989 0 5 20.6291 25.2209 16.1693 
20561 0 5 18.2028 26.1195 15.8252 
4429 0 5 21.0427 25.7514 17.8011 
1819 0 5 22.3088 24.6476 20.085 
5599 0 5 17.4033 26.467 20.0916 
3143 0 5 19.0418 27.0648 20.0914 
23666 0 5 22.0035 24.1115 25.0176 
6668 0 5 19.8926 26.3762 25.1547 
25193 0 5 19.9533 27.4593 24.6812 
14993 0 5 17.7836 22.93 29.179 
2952 0 5 17.0976 23.1638 28.4157 
10162 0 5 20.7115 32.3283 1.19587 
19477 0 5 18.4793 28.6078 7.34064 
7000 0 5 18.5151 29.251 9.37164 
3892 0 5 21.1111 28.5135 8.72332 
10182 0 5 19.1788 32.4983 9.25835 
5764 0 5 17.1175 28.2474 11.2013 
21075 0 5 22.2358 28.571 11.1213 
7792 0 5 18.6595 31.9667 12.1559 
3122 0 5 17.9202 30.3347 14.5134 
21956 0 5 20.9638 30.543 15.6039 
12528 0 5 18.6884 32.3862 15.6822 
26791 0 5 17.1979 28.4992 17.1102 
5321 0 5 17.2976 32.6 17.0926 
1332 0 5 21.3491 32.3345 17.8634 
12851 0 5 17.9743 28.6778 20.1212 
23023 0 5 19.9564 29.4687 18.9066 
15722 0 5 21.9574 29.6227 19.9418 
2505 0 5 20.0637 29.2652 21.4025 
10066 0 5 20.4918 30.4439 22.1738 
1051 0 5 21.3968 32.7582 21.4648 
24930 0 5 19.5524 28.797 23.9284 
8687 0 5 18.3747 29.7185 22.8108 
9134 0 5 19.6218 31.1687 23.7085 
25688 0 5 19.8396 32.467 23.9792 
6255 0 5 21.9282 31.9825 23.0217 
17361 0 5 19.7438 32.5322 26.8547 
10677 0 5 17.4165 29.4648 28.661 
2213 0 5 20.8385 33.1517 28.5281 
24548 0 5 20.0343 28.125 31.0308 
17683 0 5 20.043 31.2964 30.6995 
22406 0 5 20.5121 32.2782 30.4207 
11568 0 5 19.5061 32.8058 32.7493 
10028 0 5 23.5267 1.31878 0.893627 
21220 0 5 26.669 5.04967 2.54625 
11764 0 5 25.8459 5.08342 7.24701 
26611 0 5 25.5159 2.67897 16.7424 
4588 0 5 22.7627 4.88789 18.0677 
20624 0 5 22.5566 2.62383 19.1867 
16717 0 5 24.2796 4.16192 19.7655 
3853 0 5 24.3193 6.10175 18.844 
19465 0 5 26.4785 5.88548 19.514 
21150 0 5 23.8615 2.10682 21.3935 
5747 0 5 24.8522 1.11824 20.9641 
23932 0 5 25.6755 2.4961 21.9937 
3410 0 5 27.5721 2.25588 21.7779 
16782 0 5 22.7243 3.52025 22.4984 
18602 0 5 25.091 2.70213 25.2786 
25953 0 5 24.8526 6.00573 24.9013 
1754 0 5 24.438 1.98317 26.8747 
16807 0 5 24.4319 5.87641 27.1243 
7934 0 5 27.0264 5.54641 30.7253 
23373 0 5 25.2856 7.54017 1.59038 
23995 0 5 23.3407 10.9379 1.13121 
20083 0 5 24.8591 7.32743 2.67049 
24122 0 5 26.6 9.63127 11.3438 
6145 0 5 26.0061 8.40821 15.156 
2220 0 5 22.9522 10.6754 13.7216 
23137 0 5 23.295 6.57697 15.4175 
3137 0 5 24.6961 6.44232 16.5163 
15789 0 5 24.3206 11.1908 17.7472 
15773 0 5 22.6233 9.79643 19.7459 
20090 0 5 24.5223 7.65727 22.3046 
9491 0 5 25.9798 9.04346 22.3102 
21794 0 5 24.2178 10.8758 22.2334 
24694 0 5 23.2494 6.19382 23.5874 
17552 0 5 24.59 7.71235 23.524 
538 0 5 26.7273 7.49557 24.9167 
18194 0 5 26.7792 10.9515 25.0055 
9634 0 5 25.1 6.76545 26.3115 
19302 0 5 26.0893 8.30461 27.7843 
8424 0 5 26.0478 11.5485 27.0711 
15852 0 5 24.1938 7.13563 29.3972 
23862 0 5 27.1435 8.67945 28.3186 
4456 0 5 25.5266 7.93205 32.6955 
14398 0 5 22.8681 16.159 3.84779 
1393 0 5 25.7611 13.7669 6.08781 
12373 0 5 23.1246 16.6601 4.89813 
13690 0 5 22.7829 12.8638 11.2983 
553 0 5 25.1344 13.7666 10.7392 
21538 0 5 27.5302 15.2908 10.9733 
22373 0 5 24.798 15.4475 13.2009 
6065 0 5 23.5111 16.1432 17.9052 
5769 0 5 24.2286 16.875 17.2955 
7098 0 5 23.3342 14.2936 19.2603 
17697 0 5 25.9375 16.7626 20.3667 
13628 0 5 27.3355 11.8978 21.8659 
3756 0 5 26.2777 13.7776 21.7464 
4514 0 5 24.971 16.5164 22.0204 
2716 0 5 26.7745 16.9502 23.6598 
7770 0 5 22.5256 15.0019 29.9874 
23002 0 5 27.5826 13.9279 30.9386 
22194 0 5 24.8311 19.9274 1.44813 
4915 0 5 25.8133 20.2809 0.850204 
22488 0 5 23.011 20.0228 2.92035 
5663 0 5 23.8616 21.6432 4.52775 
11395 0 5 26.9718 21.5924 5.02388 
14465 0 5 26.8772 19.2549 10.7701 
1767 0 5 25.729 21.6719 10.0103 
18418 0 5 23.3294 17.2123 12.5494 
15413 0 5 26.2851 17.4906 12.0906 
25191 0 5 26.547 17.0862 13.2443 
7014 0 5 23.629 18.5426 21.6814 
16541 0 5 23.4588 22.0261 28.9186 
15035 0 5 23.9166 19.0599 30.9886 
2857 0 5 22.858 19.1061 32.9147 
19282 0 5 24.107 20.4117 32.0609 
23058 0 5 25.6135 18.875 31.8245 
19691 0 5 27.3711 25.8872 1.99698 
16622 0 5 23.3358 23.3223 4.75034 
26245 0 5 27.0846 23.8587 7.67468 
5347 0 5 27.3934 26.2131 7.88468 
23091 0 5 27.4517 22.9332 8.82725 
24668 0 5 24.4039 24.2107 13.4941 
21941 0 5 25.1618 25.2217 15.3387 
18052 0 5 22.8349 27.0475 16.2966 
5725 0 5 22.749 25.1225 17.1927 
26344 0 5 22.7505 27.0684 18.0197 
18681 0 5 25.0759 27.7101 18.5191 
20836 0 5 24.8646 26.5003 21.2822 
20806 0 5 23.4595 25.3424 24.2216 
22939 0 5 23.9948 27.0522 23.5523 
21342 0 5 23.1453 23.919 26.3527 
2583 0 5 22.6521 24.7055 28.7137 
18495 0 5 23.8506 24.1591 31.4158 
3073 0 5 27.6275 24.787 30.4575 
23517 0 5 25.8386 23.9743 32.1532 
26264 0 5 23.3328 28.905 2.46886 
17358 0 5 23.3441 29.7348 3.83968 
19283 0 5 25.226 30.5497 2.79025 
5839 0 5 24.5529 28.3705 4.9559 
7056 0 5 23.0429 30.1734 4.74186 
23132 0 5 24.3134 28.3166 8.42925 
8980 0 5 26.3163 31.9522 8.74642 
11464 0 5 26.9077 28.2524 10.8193 
22887 0 5 26.7755 28.9976 13.4351 
18397 0 5 23.7945 31.4302 14.9299 
10516 0 5 25.3518 28.7098 18.8253 
16097 0 5 27.6625 27.9889 20.662 
4007 0 5 23.2981 30.165 20.9963 
17195 0 5 24.0326 29.5885 24.9309 
19888 0 5 22.8774 29.3422 24.8836 
20568 0 5 24.5148 32.7757 24.5176 
23146 0 5 23.0448 32.1115 27.7888 
22130 0 5 25.4203 32.8577 26.562 
18692 0 5 23.7054 31.5463 30.8756 
1337 0 5 32.1322 1.99472 1.47448 
21191 0 5 30.1322 5.24609 1.4486 
20296 0 5 29.2381 3.67337 4.05279 
1538 0 5 28.2789 5.44803 3.45455 
20309 0 5 29.3559 2.64313 7.01231 
9569 0 5 29.0382 1.16421 8.57198 
3077 0 5 30.3754 1.90226 9.49943 
12939 0 5 29.4714 4.19902 8.82823 
672 0 5 29.9489 3.12155 8.18936 
21396 0 5 33.0007 1.29201 13.9266 
1275 0 5 31.8408 5.5206 13.8239 
21612 0 5 31.4087 5.6406 16.1708 
25949 0 5 30.6659 4.38698 16.0414 
7049 0 5 29.3789 4.84419 17.6513 
13640 0 5 31.725 6.07831 18.7466 
580 0 5 28.2507 3.32663 19.0674 
8997 0 5 28.6842 3.33936 24.11 
19818 0 5 29.133 3.42367 26.6847 
18390 0 5 29.6306 5.59849 27.4242 
15084 0 5 31.6227 4.50785 26.401 
14157 0 5 32.8887 1.34572 33.2598 
24429 0 5 31.8035 2.93527 31.9268 
4268 0 5 28.0741 9.90803 0.943621 
6957 0 5 30.9483 11.4724 6.86902 
8438 0 5 31.126 7.86106 9.14569 
22853 0 5 32.1844 7.85335 9.40516 
4103 0 5 32.7639 8.95082 8.12587 
6955 0 5 32.4388 6.69641 10.7722 
20059 0 5 31.923 6.87131 16.9178 
14069 0 5 28.8803 10.1507 16.9907 
10198 0 5 33.18 8.3299 17.6842 
14553 0 5 32.6767 10.5715 19.4529 
7036 0 5 30.1029 10.7549 21.8331 
23030 0 5 32.1096 11.4684 21.2613 
6966 0 5 32.7651 7.36924 22.9192 
15230 0 5 31.6925 8.73435 23.1978 
5906 0 5 30.3159 7.188 24.9997 
13403 0 5 30.3851 8.86013 24.8443 
5961 0 5 28.8787 7.58572 27.3141 
26243 0 5 33.2313 6.96365 27.5056 
23531 0 5 28.3062 9.19211 26.4469 
12992 0 5 31.2104 8.5143 29.3512 
10350 0 5 29.3505 10.0461 28.2972 
16810 0 5 31.3023 10.382 28.149 
14477 0 5 29.415 7.79531 30.9414 
17537 0 5 29.0222 9.46562 29.9478 
21832 0 5 32.7733 9.2567 31.1032 
1559 0 5 28.7262 9.7185 31.716 
1408 0 5 28.7066 8.63166 31.7761 