LAMMPS (3 Mar 2020)
OMP_NUM_THREADS environment is not set. Defaulting to 1 thread. (src/comm.cpp:94)
  using 1 OpenMP thread(s) per MPI task
Reading data file ...
  orthogonal box = (0 0 0) to (34 34 34)
  6 by 6 by 6 MPI processor grid
  reading atoms ...
  27950 atoms
  scanning bonds ...
  1 = max bonds/atom
  reading bonds ...
  8700 bonds
Finding 1-2 1-3 1-4 neighbors ...
  special bond factors lj:   0          0          0         
  special bond factors coul: 0          0          0         
  2 = max # of 1-2 neighbors
  2 = max # of 1-3 neighbors
  4 = max # of 1-4 neighbors
  6 = max # of special neighbors
  special bonds CPU = 2.47574 secs
  read_data CPU = 2.62658 secs
8100 atoms in group polyA
900 atoms in group sticker
900 atoms in group counterions
9000 atoms in group chain
950 atoms in group filler
16150 atoms in group water
950 atoms in group salt
27000 atoms in group exc
Finding 1-2 1-3 1-4 neighbors ...
  special bond factors lj:   0          1          1         
  special bond factors coul: 0          1          1         
  2 = max # of 1-2 neighbors
  6 = max # of special neighbors
  special bonds CPU = 0.0203183 secs
50 rigid bodies with 950 atoms
Neighbor list info ...
  update every 1 steps, delay 0 steps, check yes
  max neighbors/atom: 2000, page size: 100000
  master list distance cutoff = 1.7
  ghost atom cutoff = 1.7
  binsize = 0.85, bins = 40 40 40
  1 neighbor lists, perpetual/occasional/extra = 1 0 0
  (1) pair soft, perpetual
      attributes: half, newton on
      pair build: half/bin/newton
      stencil: half/bin/3d/newton
      bin: standard
Setting up Verlet run ...
  Unit style    : lj
  Current step  : 0
  Time step     : 0.005
WARNING: Communication cutoff 1.7 is shorter than a bond length based estimate of 1.755. This may lead to errors. (src/comm.cpp:686)
Per MPI rank memory allocation (min/avg/max) = 13.01 | 14.3 | 15.13 Mbytes
Step Temp Press TotEng Volume 
       0   0.79925315    4.7892389    17.464123        39304 
   10000   0.79922133    10.844718      11.9083        39304 
   20000   0.79384229    12.136748     12.19695        39304 
   30000   0.80140574    13.444223    12.522309        39304 
   40000    0.8037727    14.775067    12.797565        39304 
   50000   0.80013735    16.057087     13.08573        39304 
   60000   0.79873113    17.376883    13.379218        39304 
   70000   0.80194214    18.690692     13.63934        39304 
   80000   0.79842513    19.992674    13.919351        39304 
   90000   0.79780681    21.291263     14.18287        39304 
  100000   0.79546669    22.566731    14.484103        39304 
  110000   0.80604195    23.899381    14.810569        39304 
  120000   0.80053961    25.103424    15.107735        39304 
  130000   0.80716577    26.437427    15.414606        39304 
  140000   0.79312625    27.695467    15.700004        39304 
  150000   0.79525769    28.988796     16.01577        39304 
  160000   0.80058693     30.29443    16.327883        39304 
  170000    0.8036677    31.579343    16.656548        39304 
  180000   0.79968206    32.846913    16.969778        39304 
  190000   0.80605656    34.145142    17.308235        39304 
  200000   0.79462458    35.382407    17.607118        39304 
  210000   0.79950003    36.734328    17.937143        39304 
  220000   0.79418453    37.955854     18.24733        39304 
  230000   0.80437515    39.198907    18.586584        39304 
  240000   0.80545125    40.500856    18.893326        39304 
  250000   0.79691196    41.769731    19.218151        39304 
  260000   0.80125803    43.063733      19.5279        39304 
  270000   0.80357818    44.301368    19.845337        39304 
  280000   0.80254213    45.527434    20.180948        39304 
  290000   0.79663642    46.856208    20.502177        39304 
  300000    0.8040092    48.127964    20.818454        39304 
  310000   0.80077545    49.359462    21.134384        39304 
  320000   0.80521191    50.627559    21.457716        39304 
  330000   0.80401737    51.889993    21.767924        39304 
  340000   0.79536977    53.163475    22.081061        39304 
  350000   0.79563532    54.373317    22.402623        39304 
  360000   0.80759115    55.657385    22.736014        39304 
  370000   0.80269584    56.910144    23.039669        39304 
  380000   0.79612252     58.18286     23.36059        39304 
  390000   0.80012276    59.384588    23.674146        39304 
  400000   0.80093727    60.662707    23.999987        39304 
  410000   0.79844253    61.929833    24.303567        39304 
  420000   0.79529613     63.18506    24.618597        39304 
  430000   0.79751938    64.419786    24.940106        39304 
  440000   0.80565455    65.685492    25.268047        39304 
  450000   0.79792599    66.913895    25.565343        39304 
  460000   0.80243933    68.121259    25.898395        39304 
  470000    0.8058169    69.447649    26.225655        39304 
  480000   0.80150084    70.683312    26.528078        39304 
  490000   0.80271899    71.848993    26.838186        39304 
  500000   0.79460233    73.148965    27.155124        39304 
  510000   0.79353934    74.372868    27.459201        39304 
  520000   0.80522895      75.6252    27.796464        39304 
  530000    0.7983007     76.83891    28.092463        39304 
  540000   0.79556056    78.148925    28.417099        39304 
  550000   0.79516976    79.345246    28.716954        39304 
  560000   0.80307885    80.578668    29.046499        39304 
  570000   0.80197715    81.826295    29.362613        39304 
  580000   0.79923809    83.030439    29.677557        39304 
  590000   0.79759095    84.238362    29.983282        39304 
  600000   0.80219547    85.437693    30.309108        39304 
  610000   0.79729765    86.759655     30.59908        39304 
  620000   0.79510148    87.990762    30.902616        39304 
  630000    0.8102518    89.207964    31.250623        39304 
  640000   0.79465806    90.392179    31.541065        39304 
  650000   0.79818893    91.657022    31.863802        39304 
  660000   0.79957966    92.885813    32.169779        39304 
  670000   0.79543365    94.144317     32.48143        39304 
  680000   0.79788535    95.356739    32.804327        39304 
  690000   0.79871577    96.570759    33.114088        39304 
  700000   0.80561145     97.74004    33.434258        39304 
  710000   0.79867519    98.952555    33.741909        39304 
  720000   0.80252691    100.23687    34.050963        39304 
  730000   0.79974766    101.41968    34.358162        39304 
  740000   0.80134805    102.72383    34.676954        39304 
  750000   0.80111689    103.86903    34.996363        39304 
  760000   0.79516106    105.10457    35.282987        39304 
  770000   0.79952407    106.31789    35.612567        39304 
  780000   0.79979458     107.5136     35.91184        39304 
  790000   0.79967861    108.75022    36.232731        39304 
  800000   0.80388464    109.97005    36.539417        39304 
  810000   0.80287155     111.2202    36.858459        39304 
  820000    0.7990702    112.42469    37.152266        39304 
  830000   0.80082127    113.60666    37.473386        39304 
  840000   0.79725544    114.79643    37.780118        39304 
  850000   0.80185223    116.04602    38.093639        39304 
  860000   0.80757165    117.32923    38.402942        39304 
  870000   0.79108643    118.41619    38.685431        39304 
  880000   0.80028464       119.66    39.016812        39304 
  890000   0.79803081    120.84056    39.323605        39304 
  900000     0.796462    122.10387    39.629419        39304 
  910000   0.79855656    123.30655    39.943289        39304 
  920000   0.80028992    124.52028     40.25244        39304 
  930000   0.80383011    125.70329    40.558124        39304 
  940000   0.79704749    126.93108    40.864936        39304 
  950000   0.80032519    128.11754    41.176027        39304 
  960000    0.7982365    129.32487    41.477135        39304 
  970000   0.79965247    130.58045    41.796768        39304 
  980000   0.79768866    131.74886    42.094713        39304 
  990000    0.8056572    132.96803    42.408881        39304 
 1000000   0.80006362    134.10582    42.720601        39304 
 1010000   0.79670051    135.30848    43.013192        39304 
 1020000   0.80472648    136.56613    43.334441        39304 
 1030000   0.79944069    137.72943    43.631781        39304 
 1040000   0.79915393    138.96852     43.95752        39304 
 1050000   0.79911311    140.25608    44.253299        39304 
 1060000   0.80139397    141.40722    44.552688        39304 
 1070000   0.80453269    142.53534    44.872476        39304 
 1080000   0.80092622    143.78532    45.168988        39304 
 1090000   0.80447068     145.0554    45.482865        39304 
 1100000   0.79679505    146.19378    45.779925        39304 
 1110000   0.80116938    147.40111    46.081097        39304 
 1120000   0.79661207    148.53713    46.392456        39304 
 1130000   0.80023841    149.73663    46.711188        39304 
 1140000   0.79569647    151.01419    47.005902        39304 
 1150000   0.79607874    152.22203    47.307329        39304 
 1160000   0.79933053    153.38473    47.617523        39304 
 1170000   0.79564776    154.53624    47.917956        39304 
 1180000   0.80007217    155.73603    48.231662        39304 
 1190000   0.79903885    156.93166    48.528661        39304 
 1200000   0.79539333    158.23209    48.836432        39304 
 1210000   0.80212167    159.31531    49.153991        39304 
 1220000   0.80944844    160.49133    49.459509        39304 
 1230000   0.79907492    161.74274    49.763456        39304 
 1240000   0.80427122    163.06638    50.062371        39304 
 1250000   0.80261114     164.2049    50.364565        39304 
 1260000   0.80592801    165.39928    50.682463        39304 
 1270000   0.79657185    166.52474    50.971321        39304 
 1280000   0.80090557    167.66954    51.287105        39304 
 1290000   0.80119293    168.88416    51.592726        39304 
 1300000   0.79693547    170.12382    51.887013        39304 
 1310000   0.79754042    171.33824    52.187733        39304 
 1320000   0.79842195    172.48089    52.496682        39304 
 1330000   0.79856477    173.68935    52.802754        39304 
 1340000   0.80022802    174.87107    53.106667        39304 
 1350000   0.79694264    176.08839    53.400289        39304 
 1360000    0.7937039    177.27698     53.70585        39304 
 1370000   0.80037977    178.35573    54.017699        39304 
 1380000   0.80132726    179.59196    54.317395        39304 
 1390000   0.80323709    180.77963    54.631422        39304 
 1400000   0.79936039    181.96029    54.911329        39304 
 1410000   0.79916459    183.16696    55.230719        39304 
 1420000   0.80580297    184.32383    55.543739        39304 
 1430000   0.79721965     185.5248    55.824686        39304 
 1440000   0.80575388    186.62704    56.157369        39304 
 1450000   0.80745345    187.84537    56.455311        39304 
 1460000   0.80043165    188.96957    56.745549        39304 
 1470000   0.80445166    190.29884     57.06357        39304 
 1480000   0.80135823    191.38457    57.339274        39304 
 1490000   0.80188097    192.64145    57.651769        39304 
 1500000   0.79478316    193.88861    57.952227        39304 
 1510000   0.80180367    194.96264    58.258068        39304 
 1520000   0.79334187    196.24546    58.546711        39304 
 1530000   0.79436392    197.49538    58.847187        39304 
 1540000   0.80391521    198.50629    59.166548        39304 
 1550000   0.80114793    199.75443    59.464652        39304 
 1560000   0.79736639    200.83692    59.760893        39304 
 1570000   0.79804029    202.01946    60.064931        39304 
 1580000   0.79821151    203.26607    60.375642        39304 
 1590000   0.80445899    204.51262    60.675274        39304 
 1600000   0.80161755    205.68371    60.980745        39304 
 1610000   0.79053614    206.73419    61.272577        39304 
 1620000   0.79848226    207.83774    61.569933        39304 
 1630000   0.79791958    209.18614    61.870394        39304 
 1640000   0.79760528    210.35744    62.173823        39304 
 1650000   0.80405459    211.59171    62.474299        39304 
 1660000   0.80267601    212.71167    62.782674        39304 
 1670000   0.79688688    213.77739    63.070056        39304 
 1680000   0.79622209     214.9853    63.369789        39304 
 1690000   0.79884877    216.17708    63.681575        39304 
 1700000   0.80749791    217.47298    64.000575        39304 
 1710000   0.80433786    218.61046    64.286434        39304 
 1720000   0.79064052    219.60807    64.566822        39304 
 1730000   0.80175224    220.90905    64.890027        39304 
 1740000   0.79425906    222.09682    65.165789        39304 
 1750000   0.79626587    223.25388     65.48314        39304 
 1760000   0.79774681     224.3581    65.788449        39304 
 1770000   0.79327075    225.66909    66.068275        39304 
 1780000   0.79936046    226.81062    66.381114        39304 
 1790000   0.80296253    227.95859    66.694327        39304 
 1800000   0.79742211    229.12055    66.986102        39304 
 1810000   0.80505209    230.44304    67.293577        39304 
 1820000   0.80036798     231.4881    67.583484        39304 
 1830000   0.80611424    232.63538    67.890898        39304 
 1840000   0.79907723    233.86264    68.180261        39304 
 1850000   0.80426716    234.94536    68.480541        39304 
 1860000   0.79625834    236.18119    68.772351        39304 
 1870000   0.79924928    237.39778    69.064247        39304 
 1880000   0.79239108    238.40869    69.365702        39304 
 1890000   0.80202691    239.69247    69.664488        39304 
 1900000   0.80401175    240.83522    69.983699        39304 
 1910000   0.80926678    242.05889    70.288693        39304 
 1920000   0.80766108    243.22791    70.586617        39304 
 1930000   0.79776176    244.43055    70.867789        39304 
 1940000   0.79705439    245.53761    71.170128        39304 
 1950000   0.79702842    246.69872    71.463542        39304 
 1960000   0.79672937     247.9146    71.753735        39304 
 1970000   0.80173364    248.98545    72.088576        39304 
 1980000   0.80049033    250.24428    72.367095        39304 
 1990000   0.79017585    251.38126    72.639072        39304 
 2000000   0.80452055    252.61092    72.963935        39304 
Loop time of 981.079 on 216 procs for 2000000 steps with 27950 atoms

Performance: 880663.460 tau/day, 2038.573 timesteps/s
99.9% CPU use with 216 MPI tasks x 1 OpenMP threads

MPI task timing breakdown:
Section |  min time  |  avg time  |  max time  |%varavg| %total
---------------------------------------------------------------
Pair    | 126.47     | 132.3      | 147.88     |  31.5 | 13.48
Bond    | 1.4299     | 2.8507     | 4.1441     |  32.8 |  0.29
Neigh   | 65.34      | 73.209     | 79.06      |  26.9 |  7.46
Comm    | 242.9      | 294.75     | 330.1      |  90.2 | 30.04
Output  | 0.59543    | 0.60007    | 0.61526    |   0.3 |  0.06
Modify  | 292.17     | 349.45     | 416.98     | 141.1 | 35.62
Other   |            | 127.9      |            |       | 13.04

Nlocal:    129.398 ave 204 max 117 min
Histogram: 56 130 22 4 2 1 0 0 0 1
Nghost:    401.014 ave 443 max 368 min
Histogram: 2 11 24 41 66 38 26 6 1 1
Neighs:    876.856 ave 1438 max 763 min
Histogram: 46 115 41 8 3 2 0 0 0 1

Total # of neighbors = 189401
Ave neighs/atom = 6.77642
Ave special neighs/atom = 0.62254
Neighbor list builds = 237382
Dangerous builds = 0
System init for write_data ...
Neighbor list info ...
  update every 1 steps, delay 0 steps, check yes
  max neighbors/atom: 2000, page size: 100000
  master list distance cutoff = 2.8
  ghost atom cutoff = 2.8
  binsize = 1.4, bins = 25 25 25
  1 neighbor lists, perpetual/occasional/extra = 1 0 0
  (1) pair lj/cut, perpetual
      attributes: half, newton on
      pair build: half/bin/newton
      stencil: half/bin/3d/newton
      bin: standard
Setting up Verlet run ...
  Unit style    : lj
  Current step  : 2000000
  Time step     : 0.005
Per MPI rank memory allocation (min/avg/max) = 13.16 | 14.51 | 15.16 Mbytes
Step Temp Press TotEng Volume 
 2000000   0.80452055    9.3060244    5.3971686        39304 
 2010000    0.8022725  -0.11319517    2.5088742    34579.497 
 2020000   0.79675407  -0.11485224     2.490255     34573.32 
 2030000    0.8038625   -0.1154246    2.5038595    34561.187 
 2040000   0.80217495  -0.10491519    2.4984823    34569.603 
 2050000   0.79440893  -0.10575373    2.4869861    34538.974 
 2060000   0.79700997  -0.11483193     2.493564    34563.799 
 2070000   0.80449822  -0.11343253    2.5229911    34648.217 
 2080000   0.79946478  -0.11147393    2.4916242    34550.359 
 2090000   0.79978905  -0.10437563    2.5083926    34595.432 
 2100000    0.7976848  -0.11096239    2.4972962    34563.946 
 2110000   0.80237054  -0.11921403    2.5186868    34673.352 
 2120000   0.79085997  -0.11547569     2.487915    34563.049 
 2130000   0.80195478   -0.1172693    2.5095177      34626.7 
 2140000   0.80609204  -0.10689385    2.5134554    34605.085 
 2150000    0.7992954   -0.1052885    2.4903569    34558.881 
 2160000   0.79818038  -0.10756398    2.4972518    34574.429 
 2170000    0.8021032  -0.11332876    2.5179904    34665.337 
 2180000   0.79864184   -0.1111867    2.5125933    34632.753 
 2190000   0.79635095  -0.11050026    2.4966843    34571.922 
 2200000      0.79985  -0.11801309    2.5078392    34568.479 
 2210000   0.79586113  -0.10892014    2.4914967    34548.623 
 2220000   0.80191252  -0.11100846    2.5160251    34654.121 
 2230000   0.79898952  -0.11026774    2.4893796    34509.111 
 2240000   0.79643911  -0.11923489    2.4797349    34518.624 
 2250000   0.79857112  -0.11343386    2.4948399    34526.304 
 2260000   0.80268141  -0.10725166    2.5096056    34602.998 
 2270000   0.79490889  -0.10613113    2.4886106    34569.724 
 2280000   0.79893364  -0.11489109     2.482239    34486.403 
 2290000   0.79871361  -0.11190922    2.4971173    34530.413 
 2300000   0.80285647  -0.11180862    2.4966454    34538.248 
 2310000   0.80362764   -0.1097432    2.5112108    34635.143 
 2320000   0.80273582  -0.11776152    2.5059054    34609.603 
 2330000   0.80317267  -0.11618436    2.5107709     34588.84 
 2340000   0.79997595  -0.12573171    2.5083271    34601.511 
 2350000   0.79559902  -0.11114229    2.4929646    34523.244 
 2360000   0.80356136  -0.11784391    2.5025809     34565.57 
 2370000     0.801816  -0.12062483     2.509457    34625.354 
 2380000   0.80173545  -0.11022504    2.4959265    34560.205 
 2390000   0.80800598  -0.12236847    2.4967673    34478.706 
 2400000   0.80103915  -0.11138264    2.5041578    34568.604 
 2410000   0.80397148  -0.11110272    2.5002907    34539.056 
 2420000    0.7996731   -0.1171058    2.4720534    34454.202 
 2430000     0.798321  -0.12315828    2.4917243    34531.575 
 2440000   0.80163749  -0.11721769    2.5025534    34558.145 
 2450000    0.7959182  -0.11589477    2.4799136     34486.38 
 2460000   0.80379313   -0.1116793    2.4939738    34531.141 
 2470000   0.80187105  -0.11113436    2.5137631    34631.289 
 2480000   0.80165976  -0.11971867    2.4937695    34529.394 
 2490000   0.80549729  -0.11492553    2.5164357    34641.321 
 2500000   0.79211109  -0.10793199    2.4846429    34500.384 
 2510000   0.79976641  -0.10746738    2.4861398    34513.724 
 2520000   0.80384917  -0.11376989    2.5054119    34516.772 
 2530000   0.79921438  -0.11812526    2.4973106    34598.224 
 2540000   0.80194282  -0.12224986    2.5076454    34582.173 
 2550000   0.79350642  -0.11979529    2.4834659    34508.739 
 2560000    0.8052509  -0.11607014    2.4994682    34527.964 
 2570000   0.80392599  -0.12444236    2.4984608    34497.997 
 2580000   0.80145571  -0.11617955    2.5169151    34668.534 
 2590000   0.79174524  -0.11522295    2.4815634    34548.199 
 2600000   0.81221736  -0.11079383    2.5198976    34592.821 
 2610000   0.79830196  -0.10733437    2.4976986    34592.252 
 2620000   0.80380932  -0.10718649     2.502261    34563.992 
 2630000   0.79856476  -0.10969464     2.479033    34469.711 
 2640000   0.80083557  -0.11532549    2.5123298    34642.942 
 2650000    0.8012795  -0.10932809    2.5058159    34542.075 
 2660000   0.79510846   -0.1006327    2.4899916    34511.591 
 2670000   0.78977533  -0.10510897    2.4961752    34613.682 
 2680000    0.8037029  -0.10756004    2.5004294    34514.535 
 2690000   0.79874636  -0.11580154    2.5016333    34598.328 
 2700000   0.79934776  -0.11154706    2.4885337    34455.839 
 2710000   0.80321678  -0.11462451    2.5025685    34562.932 
 2720000   0.79963987  -0.11258582    2.4986955    34519.705 
 2730000   0.80378251  -0.11175254    2.5045259    34495.707 
 2740000   0.80148504  -0.11067465    2.4979152    34529.868 
 2750000   0.80059308  -0.11291673    2.4931946    34477.538 
 2760000   0.79566191  -0.11012569    2.4755312    34455.115 
 2770000    0.8007534   -0.1182556    2.4781601    34442.601 
 2780000   0.80164591  -0.11170572    2.5024063    34585.976 
 2790000   0.80040959  -0.11289738    2.5051937     34562.92 
 2800000   0.80421083  -0.11071322    2.4937521    34502.676 
 2810000   0.79769308  -0.11504455    2.4692047    34385.923 
 2820000   0.79943382  -0.10506107    2.4854954    34475.978 
 2830000   0.79832316  -0.10853761    2.4883225    34494.673 
 2840000   0.79993511  -0.10870922    2.5085291    34604.758 
 2850000   0.80580524  -0.10244073    2.5030514    34547.824 
 2860000   0.79958215  -0.10987233    2.5011251     34606.86 
 2870000   0.80064371  -0.11880048    2.5072377    34619.782 
 2880000   0.79827992   -0.1099326    2.5093611    34629.348 
 2890000   0.79687853  -0.10346357    2.4915628     34540.28 
 2900000   0.79778535  -0.10428007     2.507244    34638.973 
 2910000   0.80390472  -0.12076625    2.4952982    34497.728 
 2920000   0.80188375  -0.11960616    2.4844056    34509.148 
 2930000   0.79673717  -0.10677863    2.4959304    34525.971 
 2940000   0.79995833  -0.11418951    2.4874201     34486.88 
 2950000   0.80176451  -0.11937426    2.5118258    34613.115 
 2960000    0.8038406   -0.1247474     2.476236     34401.14 
 2970000   0.80113379  -0.11202568    2.4916906    34480.347 
 2980000   0.79958866  -0.11294151    2.4918394    34546.451 
 2990000   0.80170253  -0.10762034    2.5018324    34558.796 
 3000000   0.80237739  -0.11415498    2.4938969    34502.414 
 3010000   0.80423833  -0.11313048    2.5006423    34516.306 
 3020000   0.80459529   -0.1127087    2.5018312    34460.836 
 3030000   0.80582752   -0.1049105    2.4864656    34489.639 
 3040000   0.80077093  -0.11459486    2.5210893    34648.882 
 3050000   0.80524592  -0.11015229    2.5010109    34554.182 
 3060000   0.80159521  -0.11653477    2.4956964    34552.296 
 3070000   0.80378547  -0.12384956    2.5117425    34566.792 
 3080000   0.80369343  -0.10788808    2.4859458    34445.979 
 3090000   0.80121952  -0.10899268    2.5042947    34601.717 
 3100000   0.79644548  -0.11901876    2.4855536    34534.866 
 3110000   0.80530414  -0.11381242    2.5125585    34578.633 
 3120000   0.80060749   -0.1083764    2.4919222    34522.764 
 3130000   0.79826815 -0.097542261    2.4939956    34521.734 
 3140000   0.80220466   -0.1154723       2.5022    34588.077 
 3150000   0.79848307  -0.11438181    2.5051365    34633.183 
 3160000   0.80251806  -0.11660847    2.4890472    34500.379 
 3170000   0.80236302  -0.11093351    2.4922229    34498.153 
 3180000   0.79469211  -0.10995076    2.4871209    34521.855 
 3190000    0.8001573   -0.1036833    2.4889544    34504.093 
 3200000   0.80519211  -0.10767845    2.5071379     34584.65 
 3210000   0.79923902  -0.11523672    2.4918708    34498.094 
 3220000   0.80166094  -0.11809961    2.4826338    34481.487 
 3230000   0.79520644  -0.11578792    2.4734849     34465.71 
 3240000   0.79833864  -0.11094098    2.4834893    34490.718 
 3250000    0.7982877  -0.11513194    2.5142254    34660.348 
 3260000    0.7969931  -0.11311787     2.499602    34635.988 
 3270000   0.79819764  -0.12063987    2.4978886    34562.269 
 3280000   0.79847583  -0.12158681    2.5242811    34760.719 
 3290000    0.8021754  -0.11083365    2.4959334    34507.875 
 3300000   0.80343127  -0.11150394    2.5082388     34555.85 
 3310000   0.79284954  -0.12159439    2.4862326    34524.512 
 3320000    0.8028227  -0.11603008    2.5138859    34631.398 
 3330000   0.79874939   -0.1221365    2.4848778    34508.463 
 3340000   0.78962057  -0.10702472    2.4633165    34431.193 
 3350000   0.79529265  -0.11297459    2.4895218    34527.894 
 3360000   0.79547836  -0.10516007    2.4916744    34540.331 
 3370000   0.80404722  -0.11335718    2.4860359    34479.364 
 3380000   0.79654005  -0.11693459    2.4830748      34495.6 
 3390000   0.79811057  -0.10876252    2.4756046    34418.168 
 3400000   0.79740509  -0.10871483    2.4958283    34566.908 
 3410000   0.80605926  -0.10410505    2.4946667    34489.839 
 3420000    0.7984826  -0.12019607     2.480065    34437.024 
 3430000   0.79457081  -0.12011779     2.494524    34544.262 
 3440000   0.80095682  -0.11395361     2.487886    34490.726 
 3450000   0.80381458  -0.11415979    2.4963581    34522.013 
 3460000   0.80146335   -0.1028816     2.522136    34661.944 
 3470000   0.79931356  -0.11008404     2.481781    34466.599 
 3480000   0.79245001  -0.12006902    2.4857769    34559.249 
 3490000   0.80101036  -0.11535706    2.4916034    34514.117 
 3500000   0.79476516  -0.11754564    2.4905132    34580.987 
 3510000   0.79779162  -0.10547847    2.4904867    34547.265 
 3520000   0.80422245  -0.11472837    2.5168049     34635.33 
 3530000    0.8024315  -0.10917462    2.4931782    34531.183 
 3540000   0.80272816  -0.11103769    2.5120969    34591.993 
 3550000   0.80202637  -0.10838417    2.5142499    34641.439 
 3560000   0.79421026  -0.11779627    2.4875588    34506.683 
 3570000   0.79727654  -0.11412811    2.4874614    34554.722 
 3580000   0.80352646  -0.11439584    2.4895202    34443.679 
 3590000   0.79260022  -0.10673921    2.4793883    34487.986 
 3600000   0.80110144  -0.10749757    2.5043563    34559.348 
 3610000   0.80352284  -0.10686755    2.4925976    34475.616 
 3620000   0.79648517  -0.11579646     2.477478    34429.116 
 3630000   0.80300124  -0.11156665    2.5006262    34566.641 
 3640000   0.79842407  -0.11258065    2.4977443    34570.983 
 3650000   0.80435989  -0.11794493    2.4849067      34466.5 
 3660000   0.80085255  -0.11172628    2.4715873    34430.064 
 3670000   0.80211754  -0.11191558    2.4950651    34540.677 
 3680000   0.80206316  -0.11289951    2.4944134    34507.891 
 3690000   0.79999539  -0.11131925    2.4656526    34375.783 
 3700000   0.79711364  -0.10446747    2.4896815    34538.359 
 3710000   0.79265471  -0.10381609    2.4853337    34543.927 
 3720000   0.79590951  -0.10865252    2.4776799     34513.29 
 3730000    0.7954857  -0.11025713    2.4778221    34506.631 
 3740000   0.79976508  -0.11790406    2.4916212    34563.972 
 3750000   0.80232238   -0.1099933    2.5029204    34534.919 
 3760000    0.8052461  -0.11068172     2.494898    34502.094 
 3770000   0.79448388  -0.11590267    2.4768533    34413.454 
 3780000   0.80034963  -0.11076509    2.4972226    34560.624 
 3790000   0.79824208  -0.11806873    2.5014675    34631.533 
 3800000   0.80022613  -0.10826714    2.4904319    34521.405 
 3810000   0.79590677   -0.1069742     2.488122     34537.25 
 3820000   0.80421479  -0.10793914    2.4971132     34527.56 
 3830000   0.79793437  -0.11588771    2.4814497    34435.951 
 3840000   0.80079849  -0.11261392    2.4889551    34471.564 
 3850000   0.79753991  -0.11536467    2.4833543    34503.039 
 3860000    0.8081439  -0.11587931    2.5145718    34649.393 
 3870000   0.79751228  -0.10688592     2.487972    34589.034 
 3880000    0.8043732  -0.11211017    2.4922482    34513.027 
 3890000   0.79261072  -0.11577239     2.479969    34502.259 
 3900000   0.79598608  -0.12052287    2.4750828     34475.09 
 3910000   0.80140855  -0.11257681     2.462678    34332.493 
 3920000   0.79460688  -0.11760813    2.4622597    34420.104 
 3930000   0.80060422  -0.12289002    2.4683599    34413.628 
 3940000   0.79882227  -0.11114945    2.4809913    34485.262 
 3950000   0.80096813  -0.11255694    2.4836375    34472.389 
 3960000   0.79157791  -0.10683953     2.472533    34486.076 
 3970000   0.79795939  -0.11250273    2.4867158    34487.011 
 3980000   0.80316453  -0.11117243     2.495536    34511.279 
 3990000   0.79057288  -0.10876674    2.4598184    34430.345 
 4000000   0.80801111  -0.11018294    2.4867726    34474.825 
 4010000   0.80561123  -0.11716935    2.4844796    34423.171 
 4020000    0.8000103  -0.11312288     2.481372    34494.476 
 4030000   0.81041292  -0.10902145    2.4950309    34456.729 
 4040000   0.79644622  -0.10441075    2.4646064    34407.555 
 4050000    0.8016715  -0.11335388    2.5023165    34608.456 
 4060000   0.80506219  -0.11089397    2.4921928    34477.337 
 4070000    0.7980235  -0.10386183    2.4785009    34439.346 
 4080000   0.80278492  -0.11028653    2.4899904    34519.243 
 4090000   0.80180248  -0.11279659    2.4882781    34498.328 
 4100000   0.80138982  -0.11847901    2.4721907     34386.47 
 4110000    0.8008069   -0.1106009    2.4900825    34468.786 
 4120000   0.79814442  -0.11121851    2.4764612    34412.984 
 4130000   0.80621496   -0.1151029    2.4989827    34463.186 
 4140000   0.79691871  -0.11538942     2.486873    34483.688 
 4150000   0.79943534   -0.1142166    2.4787205    34427.624 
 4160000   0.81078234  -0.11198428    2.5122433    34548.182 
 4170000   0.80127919  -0.11006285    2.4834049     34459.85 
 4180000   0.79531658  -0.10367328    2.4607925    34349.982 
 4190000   0.80309841  -0.11295762     2.477827    34447.223 
 4200000   0.79335338  -0.10915946    2.4828585    34526.109 
 4210000   0.80119452  -0.11825156     2.475175    34441.751 
 4220000   0.80320565  -0.10595838    2.4779804    34438.709 
 4230000   0.80036767  -0.10775958    2.4849873    34456.495 
 4240000   0.80205405  -0.11461195    2.4934646    34484.712 
 4250000   0.79488425   -0.1170905    2.4672169    34437.618 
 4260000   0.79731744  -0.11504495    2.4853989    34541.664 
 4270000   0.79843668  -0.11520315     2.496741    34588.607 
 4280000   0.79125826  -0.10791343    2.4840452    34516.293 
 4290000   0.80184582  -0.11552744    2.4800349    34443.689 
 4300000   0.80123249  -0.11010106    2.4897436    34532.791 
 4310000   0.80154747  -0.11055414    2.4998787    34532.135 
 4320000    0.7957909   -0.1126896    2.4844961    34504.565 
 4330000   0.80127149   -0.1145484    2.5041866    34571.548 
 4340000   0.80211089  -0.10618994    2.4753621    34418.652 
 4350000   0.80153957  -0.11224665    2.4942596    34528.374 
 4360000   0.80278137  -0.11457971    2.4678689    34417.836 
 4370000    0.7963646  -0.12085269    2.4820044    34529.874 
 4380000    0.7994614  -0.11351238    2.4799533    34454.801 
 4390000   0.80140251  -0.11023636    2.4992246    34547.154 
 4400000   0.79560608  -0.11430586    2.4812629    34514.362 
 4410000   0.78980649  -0.11045942     2.463334    34428.872 
 4420000   0.79881808  -0.10552603     2.470371    34403.296 
 4430000   0.80283375  -0.11343702     2.488771    34504.474 
 4440000   0.79327941  -0.10358664    2.4862138    34558.247 
 4450000   0.79916406  -0.11036587    2.4810143     34453.22 
 4460000    0.8044576  -0.10840964    2.4818069    34462.824 
 4470000   0.79991093   -0.1180244    2.4549833    34322.613 
 4480000   0.79506304  -0.12190241    2.4728302    34484.642 
 4490000   0.79730065  -0.11553121    2.4688532    34380.831 
 4500000     0.799495  -0.11321166    2.4780198    34478.246 
 4510000   0.80050723  -0.10324942    2.4738513    34407.855 
 4520000   0.80057549  -0.11322095    2.4777808    34449.577 
 4530000   0.79944231   -0.1151585    2.4823908    34469.536 
 4540000   0.79865148   -0.1218112     2.475954    34461.639 
 4550000    0.8013965  -0.11143611    2.4628593    34389.309 
 4560000   0.79615763  -0.10560401    2.4734792    34501.911 
 4570000   0.79861919  -0.10907792    2.4807937    34475.159 
 4580000   0.80097323  -0.10862132    2.4622793    34354.613 
 4590000   0.79640416  -0.12495742    2.4610996    34368.737 
 4600000   0.79380704  -0.11824545    2.4650282      34417.7 
 4610000   0.80227488  -0.11991998    2.4900359    34545.858 
 4620000     0.801468  -0.10821588    2.4765486    34437.747 
 4630000    0.7999061  -0.11121297    2.4808443    34465.439 
 4640000   0.79940742  -0.11576511    2.4613678    34381.575 
 4650000   0.80695097  -0.11843545    2.4983545    34551.337 
 4660000   0.79999886  -0.11685766     2.469028    34381.674 
 4670000   0.80184562  -0.11114813    2.4820094    34457.951 
 4680000   0.79602356   -0.1132168    2.4596094    34372.048 
 4690000   0.79679488  -0.10859561    2.4879398    34544.528 
 4700000   0.79762252   -0.1083549    2.4713493    34411.773 
 4710000   0.80317877  -0.11405639    2.4687258    34352.074 
 4720000   0.79739701  -0.11716601    2.4680851    34424.285 
 4730000    0.8056031   -0.1072263     2.476536     34410.23 
 4740000      0.79886  -0.11294558     2.483434    34488.362 
 4750000   0.80178412  -0.11253019    2.4845038     34461.95 
 4760000   0.80462854  -0.11786746    2.4810211    34430.137 
 4770000   0.80613691  -0.11633305    2.4821432    34446.582 
 4780000    0.7983367  -0.10920058    2.4730712    34413.561 
 4790000   0.79987446  -0.10634536    2.4801249     34461.14 
 4800000   0.79901534  -0.12183398    2.4644845    34389.809 
 4810000   0.80638969  -0.10920238    2.4877614    34458.574 
 4820000   0.79979717  -0.12177066    2.4783443    34473.069 
 4830000   0.80171427  -0.11159309    2.4569413    34338.672 
 4840000   0.80867353  -0.11436442     2.482087    34430.612 
 4850000   0.80239961  -0.11802473     2.464635    34372.546 
 4860000   0.80078196  -0.11773847    2.4725591    34395.755 
 4870000   0.80156729  -0.10966948    2.4631721    34360.946 
 4880000   0.80448564  -0.11235616    2.4805531    34437.073 
 4890000   0.80096028  -0.10817485      2.48975    34500.055 
 4900000   0.80256602  -0.11317957    2.4729979    34409.355 
 4910000   0.80051233  -0.10978232    2.4935299     34501.38 
 4920000   0.79925897  -0.11134547    2.4874598    34532.148 
 4930000   0.80252528  -0.10919744    2.4639628    34352.687 
 4940000   0.80606464  -0.11383297    2.4915958     34494.39 
 4950000   0.80169749  -0.11315182    2.4518077    34314.019 
 4960000   0.80295289   -0.1125097    2.4852478    34524.351 
 4970000   0.80495397  -0.12069195    2.4721549    34403.773 
 4980000   0.80049425  -0.12357332     2.478543    34430.333 
 4990000   0.80020369  -0.11750001    2.4692835    34433.658 
 5000000   0.80336003  -0.10887371    2.4851514    34481.711 
 5010000   0.79859455  -0.11026914    2.4691692    34418.626 
 5020000   0.79753294  -0.11583513     2.484536    34461.505 
 5030000   0.80204414   -0.1086316    2.4866409    34491.091 
 5040000   0.80041243  -0.11942708    2.4587216    34353.957 
 5050000   0.80329828  -0.11495459    2.4846622    34429.242 
 5060000   0.79783805   -0.1162638    2.4854103    34500.467 
 5070000   0.80208284  -0.10926181    2.4822051    34424.988 
 5080000   0.80490779  -0.10753621    2.4806558    34412.582 
 5090000   0.79864696   -0.1096815    2.4550705    34362.037 
 5100000   0.79601361  -0.11137185    2.4772225    34439.894 
 5110000   0.79847951   -0.1112645    2.4585493    34339.429 
 5120000    0.8013913  -0.11824106    2.4842102    34415.292 
 5130000   0.80277342  -0.10810882    2.4640116    34352.292 
 5140000   0.79940384  -0.10069202    2.4578612      34337.8 
 5150000   0.79407482  -0.11991355    2.4675726    34452.838 
 5160000   0.80235585  -0.11631815    2.4695025    34369.336 
 5170000   0.79090493  -0.11325626    2.4675799    34486.413 
 5180000   0.79924014  -0.10899694    2.4747804    34412.882 
 5190000   0.79835983  -0.11514204    2.4759902     34460.62 
 5200000   0.79981382  -0.10712269    2.4793951    34408.965 
 5210000   0.79786772  -0.11444997    2.4611115    34389.582 
 5220000   0.79453187  -0.11931391    2.4640127    34376.551 
 5230000   0.79582727  -0.11382132    2.4663804    34365.208 
 5240000   0.80499533  -0.11331096    2.5057431    34572.013 
 5250000    0.8050672  -0.11235877    2.4929309    34486.344 
 5260000   0.79795669  -0.11056606    2.4633574    34403.469 
 5270000   0.80126696  -0.10731478    2.4631673    34371.139 
 5280000   0.80868036  -0.11786698    2.4930277     34460.15 
 5290000    0.7964473  -0.11692972    2.4693171    34439.567 
 5300000   0.79254886  -0.12127183     2.461013    34429.797 
 5310000   0.80133189    -0.116678    2.4794902    34449.481 
 5320000   0.79582222  -0.11885199    2.4881711    34499.336 
 5330000   0.79935056  -0.11682062    2.4930137    34512.561 
 5340000   0.80590603  -0.11970705    2.4842483    34421.765 
 5350000   0.79914518  -0.11591099    2.4824095    34512.978 
 5360000   0.79339655  -0.10231133    2.4591419    34376.951 
 5370000   0.80631228  -0.10988509    2.4960987    34482.884 
 5380000   0.79819083  -0.11600893    2.4875767    34571.013 
 5390000   0.80230464  -0.10766483    2.4620248    34390.667 
 5400000   0.79752401   -0.1177905    2.4742296    34386.747 
 5410000   0.79933357  -0.11887024    2.4631912    34376.618 
 5420000    0.7979595  -0.12225803    2.4798344    34493.127 
 5430000   0.80149721  -0.11175993    2.4747563    34428.261 
 5440000   0.79479877   -0.1115377    2.4792899    34534.142 
 5450000   0.80323408   -0.1142661    2.4773018    34421.665 
 5460000   0.79669608  -0.11045335    2.4618682    34373.053 
 5470000   0.79697964  -0.11259196    2.4573361    34380.977 
 5480000   0.79799708  -0.11606705    2.4585364    34403.671 
 5490000   0.80323625  -0.11337735    2.4778068     34406.28 
 5500000   0.79620697  -0.11755983    2.4697695    34444.665 
 5510000   0.80215899  -0.12127086    2.4673929    34428.295 
 5520000   0.80357495  -0.12244567     2.489109    34527.455 
 5530000   0.79622199  -0.11706839    2.4763749    34468.963 
 5540000   0.80375122  -0.10940053     2.479847    34450.084 
 5550000   0.79657059  -0.11352384    2.4439485    34321.634 
 5560000   0.79663176  -0.11427026    2.4671673    34462.609 
 5570000   0.80286692  -0.10635526    2.4828121    34444.717 
 5580000   0.80107589  -0.10543206    2.4964157    34580.445 
 5590000   0.79901019   -0.1071899    2.4640525    34446.644 
 5600000    0.7993048  -0.11789928    2.4718971    34453.906 
 5610000   0.80345887  -0.11615302    2.4731389    34412.272 
 5620000   0.79748655  -0.11729037    2.4546108    34361.978 
 5630000   0.80403503  -0.11941008    2.4900061    34490.116 
 5640000   0.78882902  -0.10542952    2.4527541    34433.316 
 5650000   0.79591988  -0.11107935    2.4502553    34360.177 
 5660000   0.79112033  -0.12363132    2.4587969    34388.684 
 5670000   0.80063749  -0.12010748    2.4861858    34513.897 
 5680000   0.79684327   -0.1155093    2.4812299    34539.783 
 5690000   0.79852547  -0.12667208    2.4731101    34420.888 
 5700000   0.80009157  -0.11878098    2.4738115    34451.754 
 5710000   0.80247773  -0.12090999    2.4905984    34546.037 
 5720000   0.79949936  -0.11228511    2.4815385    34486.156 
 5730000   0.79805151  -0.10756416    2.4702472    34450.338 
 5740000   0.79844857  -0.12221177    2.4587544    34373.265 
 5750000   0.80001128   -0.1167414    2.4881717    34501.528 
 5760000   0.79460038  -0.11723731    2.4605114    34418.147 
 5770000   0.80701873  -0.11883085     2.474731    34367.921 
 5780000   0.80517039  -0.11098955     2.492514    34519.264 
 5790000   0.79818576  -0.11623549    2.4675278    34441.128 
 5800000   0.80300276  -0.10937156    2.4661701    34354.038 
 5810000   0.80056896   -0.1141868     2.460766    34361.622 
 5820000   0.79541594  -0.11459813    2.4721376    34434.957 
 5830000   0.80428228  -0.11507987    2.4844261    34493.074 
 5840000   0.80313202  -0.11458623    2.4830739    34459.097 
 5850000   0.80079715  -0.10912258    2.4712193    34407.904 
 5860000   0.80753544  -0.11064343    2.4950732    34527.453 
 5870000   0.80304142  -0.11875949    2.4813767    34424.257 
 5880000   0.80065968  -0.12180239    2.4601306    34344.225 
 5890000   0.79957309  -0.12056233    2.4862448    34488.061 
 5900000    0.7992535  -0.11891403    2.4534597    34315.748 
 5910000   0.80771851  -0.11921873    2.4734043    34369.341 
 5920000   0.79331644  -0.11336859    2.4700703    34392.718 
 5930000   0.80203897   -0.1161444    2.4864824    34504.485 
 5940000   0.80135541  -0.11652131    2.4790777    34462.268 
 5950000    0.8051205  -0.11335229    2.4757312    34401.094 
 5960000   0.79697518  -0.11463558    2.4656041    34439.978 
 5970000   0.80612114  -0.11062099    2.4899985    34470.105 
 5980000   0.80012057  -0.12017183    2.4580767    34349.185 
 5990000   0.80314149  -0.11704572    2.4483361    34274.631 
 6000000   0.79719458  -0.11051679    2.4818055    34524.597 
 6010000   0.80366348   -0.1092097    2.4670705    34427.461 
 6020000   0.80343043  -0.11132977    2.4890273    34484.746 
 6030000   0.79577674  -0.11451148    2.4688302    34458.429 
 6040000   0.79969165  -0.11580872    2.4816525    34468.888 
 6050000   0.79870748  -0.10612555    2.4725369    34412.938 
 6060000   0.79703867    -0.105251    2.4846758    34459.955 
 6070000   0.80221488  -0.10345502    2.4711127    34414.388 
 6080000   0.80566551  -0.11061419    2.4919629    34476.833 
 6090000    0.8053938   -0.1147325    2.4735914    34336.473 
 6100000   0.80226134  -0.10903041    2.4645778    34342.203 
 6110000   0.80081056  -0.11932023    2.4690578    34378.209 
 6120000     0.801181  -0.12199758    2.4702239    34428.298 
 6130000   0.79559834  -0.11296533    2.4663719    34410.593 
 6140000   0.79793338  -0.11499699     2.458669    34301.852 
 6150000   0.80522479  -0.12024987    2.4873459    34473.951 
 6160000   0.80423039  -0.11093171    2.4879067    34442.601 
 6170000   0.79990391  -0.11678004    2.4696804    34424.381 
 6180000   0.79452669  -0.11537638    2.4660591    34455.328 
 6190000   0.80517014  -0.10987408    2.4883433    34425.694 
 6200000   0.79508522  -0.10233037    2.4431453    34309.094 
 6210000   0.80233816  -0.12023203    2.4724764    34441.268 
 6220000   0.79987995  -0.11645632    2.4646735    34397.236 
 6230000   0.80914773  -0.10865577    2.4843062    34419.167 
 6240000   0.80168635  -0.11101131    2.4677342    34400.612 
 6250000   0.79962785  -0.11264919    2.4509756    34307.168 
 6260000   0.79676103  -0.11717731      2.44383    34298.997 
 6270000    0.7996384  -0.10961734    2.4666764    34434.627 
 6280000   0.79628711  -0.11209025    2.4633668    34399.863 
 6290000   0.80108528  -0.10550418    2.4724834    34431.785 
 6300000   0.80478618   -0.1176877    2.4663593    34364.599 
 6310000   0.80401735  -0.11655436    2.4720613    34391.135 
 6320000    0.8016473  -0.11871465    2.4718918    34439.841 
 6330000   0.79113264  -0.10498763    2.4636493    34412.458 
 6340000    0.8041121  -0.10904012     2.485289    34463.343 
 6350000   0.79879923  -0.11731056    2.4644479    34463.149 
 6360000   0.80214828  -0.12069445    2.4756883    34434.766 
 6370000   0.80200873  -0.10770055    2.4766008    34446.784 
 6380000   0.79990238  -0.11775605    2.4660215    34381.584 
 6390000   0.80198179  -0.11579962    2.4770084    34450.655 
 6400000   0.78843231  -0.11283262     2.451863    34369.208 
 6410000   0.80582312  -0.10992874    2.5001083    34520.257 
 6420000   0.80401516  -0.11702448    2.4783821    34418.938 
 6430000    0.8025574   -0.1135905    2.4693906    34359.092 
 6440000   0.79696616  -0.11124838     2.469331    34439.421 
 6450000   0.79959515  -0.11511275     2.477456     34467.19 
 6460000   0.80579568  -0.11348549    2.4730975    34394.199 
 6470000   0.79580554  -0.10811218    2.4532841    34299.622 
 6480000   0.80139661   -0.1138397    2.4692377    34366.014 
 6490000    0.8032615  -0.10666131    2.4785024     34391.81 
 6500000   0.80381734  -0.11789549    2.4919362    34478.878 
 6510000   0.79889013  -0.10771155    2.4721693    34410.847 
 6520000   0.79628975  -0.11736531    2.4538185    34297.154 
 6530000   0.80433057  -0.11557538    2.4800432    34408.232 
 6540000   0.80682219   -0.1154882    2.4827394    34439.863 
 6550000   0.80963978  -0.12088252    2.4815676     34453.03 
 6560000   0.79370317  -0.11953581    2.4688373    34444.407 
 6570000   0.80181964  -0.11298856    2.4618612    34336.683 
 6580000   0.80430077  -0.11081881    2.4722251    34381.205 
 6590000   0.79296498  -0.11282014    2.4629364    34465.421 
 6600000    0.8009154   -0.1143872    2.4693976    34371.644 
 6610000   0.79833459  -0.11668944    2.4695483    34441.803 
 6620000   0.79924913  -0.11912975    2.4764289    34444.458 
 6630000   0.80456068  -0.11693128    2.4595182    34338.636 
 6640000   0.80051784  -0.11543067    2.4646309    34365.981 
 6650000   0.79672251  -0.10795285    2.4501047    34333.486 
 6660000   0.79545463  -0.11597517    2.4476318    34306.139 
 6670000   0.80699936  -0.11371785    2.4812318    34415.911 
 6680000   0.79414068  -0.11385952    2.4627125    34421.057 
 6690000    0.8025395  -0.11096383    2.4680669    34398.723 
 6700000   0.79782669  -0.10374629    2.4737028    34444.058 
 6710000   0.79513278  -0.12293874    2.4635825    34385.324 
 6720000   0.80201505  -0.10333635    2.4657065    34390.994 
 6730000   0.79993102   -0.1190649    2.4790282    34453.382 
 6740000   0.80728876  -0.12454033     2.456488    34342.187 
 6750000   0.80495996  -0.12262524    2.4747406    34416.254 
 6760000   0.80584976  -0.11873551     2.487149     34482.31 
 6770000   0.80079451  -0.11578257    2.4726729    34405.397 
 6780000   0.79876871  -0.11180428    2.4740309    34422.474 
 6790000   0.80187091  -0.12014232    2.4731276    34464.289 
 6800000   0.80015904  -0.11677753    2.4650057    34348.076 
 6810000   0.79784846  -0.11172954    2.4973047    34585.409 
 6820000   0.80609107  -0.11746023    2.4811299    34415.506 
 6830000   0.80121213  -0.11728403    2.4659307    34393.823 
 6840000   0.80953816  -0.11348026    2.4891623    34435.963 
 6850000   0.79740401  -0.10665096    2.4690125    34422.777 
 6860000   0.80025051   -0.1127175    2.4752642    34460.775 
 6870000   0.80101955  -0.11039941    2.4647146    34408.744 
 6880000   0.80154135  -0.11442834    2.4668014    34374.746 
 6890000   0.79694348  -0.11285927    2.4785526    34493.845 
 6900000   0.79509208  -0.11085283    2.4690406    34436.779 
 6910000   0.79584925  -0.11454257    2.4657958    34410.186 
 6920000   0.79827004  -0.11639254    2.4793017    34481.951 
 6930000   0.79988883  -0.11136224    2.4893462    34521.206 
 6940000   0.79766013  -0.11760815    2.4529041    34321.392 
 6950000    0.7995283   -0.1223562    2.4615568    34372.096 
 6960000   0.80557505  -0.12009773    2.4559186    34318.606 
 6970000   0.79564685  -0.11804428    2.4785854    34494.057 
 6980000   0.80234061  -0.11665605    2.4835441    34528.191 
 6990000   0.79778228  -0.11345151    2.4633824    34357.412 
 7000000   0.80114547  -0.11357473    2.4757788    34417.053 
Loop time of 3982.78 on 216 procs for 5000000 steps with 27950 atoms

Performance: 542334.867 tau/day, 1255.405 timesteps/s
99.8% CPU use with 216 MPI tasks x 1 OpenMP threads

MPI task timing breakdown:
Section |  min time  |  avg time  |  max time  |%varavg| %total
---------------------------------------------------------------
Pair    | 438.98     | 481.77     | 537.56     |  85.3 | 12.10
Bond    | 8.3202     | 9.7277     | 11.611     |  22.8 |  0.24
Neigh   | 552.3      | 587.48     | 621.07     |  58.1 | 14.75
Comm    | 872.41     | 1033.7     | 1153.8     | 155.5 | 25.95
Output  | 1.9258     | 1.9304     | 1.9723     |   0.3 |  0.05
Modify  | 1492       | 1627.8     | 1744.2     | 108.3 | 40.87
Other   |            | 240.3      |            |       |  6.03

Nlocal:    129.398 ave 200 max 108 min
Histogram: 13 88 80 19 6 4 2 2 0 2
Nghost:    958.245 ave 1099 max 893 min
Histogram: 21 53 51 27 23 18 14 5 2 2
Neighs:    4676.65 ave 9103 max 3701 min
Histogram: 46 114 36 7 5 3 3 0 0 2

Total # of neighbors = 1010156
Ave neighs/atom = 36.1415
Ave special neighs/atom = 0.62254
Neighbor list builds = 693650
Dangerous builds = 26
System init for write_restart ...
Setting atom values ...
  900 settings made for charge
Setting atom values ...
  900 settings made for charge
Setting atom values ...
  950 settings made for charge
Setting atom values ...
  950 settings made for charge
System init for write_data ...
PPPM initialization ...
  using 12-bit tables for long-range coulomb (src/kspace.cpp:332)
  G vector (1/distance) = 1.0914
  grid = 75 75 75
  stencil order = 5
  estimated absolute RMS force accuracy = 0.000124342
  estimated relative force accuracy = 0.000124342
  using double precision FFTW3
  3d grid and FFT values/proc = 5832 2625
WARNING: Neighbor exclusions used with KSpace solver may give inconsistent Coulombic energies (src/neighbor.cpp:486)
Neighbor list info ...
  update every 1 steps, delay 0 steps, check yes
  max neighbors/atom: 2000, page size: 100000
  master list distance cutoff = 2.8
  ghost atom cutoff = 2.8
  binsize = 1.4, bins = 24 24 24
  2 neighbor lists, perpetual/occasional/extra = 2 0 0
  (1) pair lj/cut, perpetual
      attributes: half, newton on
      pair build: half/bin/newton
      stencil: half/bin/3d/newton
      bin: standard
  (2) pair coul/long, perpetual, skip from (1)
      attributes: half, newton on
      pair build: skip
      stencil: none
      bin: none
PPPM initialization ...
  using 12-bit tables for long-range coulomb (src/kspace.cpp:332)
  G vector (1/distance) = 1.0914
  grid = 75 75 75
  stencil order = 5
  estimated absolute RMS force accuracy = 0.000124342
  estimated relative force accuracy = 0.000124342
  using double precision FFTW3
  3d grid and FFT values/proc = 5832 2625
WARNING: Neighbor exclusions used with KSpace solver may give inconsistent Coulombic energies (src/neighbor.cpp:486)
Neighbor list info ...
  update every 1 steps, delay 0 steps, check yes
  max neighbors/atom: 2000, page size: 100000
  master list distance cutoff = 2.8
  ghost atom cutoff = 2.8
  binsize = 1.4, bins = 24 24 24
  2 neighbor lists, perpetual/occasional/extra = 2 0 0
  (1) pair lj/cut, perpetual
      attributes: half, newton on
      pair build: half/bin/newton
      stencil: half/bin/3d/newton
      bin: standard
  (2) pair coul/long, perpetual, skip from (1)
      attributes: half, newton on
      pair build: skip
      stencil: none
      bin: none
Setting up Verlet run ...
  Unit style    : lj
  Current step  : 7000000
  Time step     : 0.005
Per MPI rank memory allocation (min/avg/max) = 14.57 | 15.85 | 16.65 Mbytes
Step Temp Press TotEng Volume 
 7000000   0.80114547    -0.108985    3.2525089    34417.053 
 7010000   0.79794125  -0.13248544    2.5928924    34417.053 
 7020000    0.8039924  -0.13985165    2.5215259    34417.053 
 7030000   0.80478936  -0.19562233    2.4752682    34417.053 
 7040000   0.79988768  -0.13591829    2.4319223    34417.053 
 7050000   0.80193513  -0.14334665    2.4213604    34417.053 
 7060000   0.79586729   -0.1222667    2.3932263    34417.053 
 7070000   0.80014655  -0.14039093    2.3894385    34417.053 
 7080000   0.80101175  -0.19522603    2.3704616    34417.053 
 7090000   0.80495029  -0.12650293    2.3653974    34417.053 
 7100000    0.7989433  -0.12536492    2.3470664    34417.053 
 7110000   0.79613564   -0.1292322    2.3393772    34417.053 
 7120000    0.8032024 -0.060144248    2.3447731    34417.053 
 7130000   0.80568317  -0.12274565    2.3303974    34417.053 
 7140000   0.79588026 -0.071313731    2.3104476    34417.053 
 7150000   0.80013736  -0.11869763    2.2965801    34417.053 
 7160000   0.80622138  -0.10745168    2.3140636    34417.053 
 7170000   0.80704906 -0.064475787    2.3076196    34417.053 
 7180000   0.80050775  -0.12219117    2.3038428    34417.053 
 7190000   0.79810959  -0.14810885    2.2860157    34417.053 
 7200000   0.79686938  -0.15764092    2.2747082    34417.053 
 7210000   0.80431061  -0.12696652    2.2765994    34417.053 
 7220000   0.79520033  -0.10470277    2.2696665    34417.053 
 7230000   0.80972095  -0.16082568    2.2832609    34417.053 
 7240000   0.80587511  -0.10625225    2.2701472    34417.053 
 7250000   0.80482377  -0.12016354    2.2603585    34417.053 
 7260000    0.7917845  -0.14364974    2.2421189    34417.053 
 7270000   0.79515208  -0.15250075    2.2374706    34417.053 
 7280000   0.79606888   -0.1236168    2.2421405    34417.053 
 7290000   0.79392429  -0.13944147    2.2402627    34417.053 
 7300000   0.80261713  -0.13440652    2.2454052    34417.053 
 7310000   0.79270505 -0.073813254    2.2324928    34417.053 
 7320000   0.79689091 -0.089646817    2.2351807    34417.053 
 7330000   0.80424142 -0.096071607    2.2535212    34417.053 
 7340000   0.80099503 -0.081894768    2.2307651    34417.053 
 7350000   0.79505991  -0.12848627    2.2155025    34417.053 
 7360000   0.79914213  -0.19457887    2.2142478    34417.053 
 7370000   0.80426084  -0.12442084    2.2256266    34417.053 
 7380000   0.80085001  -0.13446474    2.2174274    34417.053 
 7390000   0.79920684  -0.14863162     2.215147    34417.053 
 7400000   0.80845253 -0.064474915    2.2202285    34417.053 
 7410000   0.80928216   -0.1241045    2.2169407    34417.053 
 7420000   0.79654871  -0.15005613     2.205433    34417.053 
 7430000   0.80268561 -0.071894925    2.2094996    34417.053 
 7440000   0.80099972  -0.10829925    2.2010924    34417.053 
 7450000   0.79805332 -0.069077311    2.2067007    34417.053 
 7460000   0.80713917 -0.063843647     2.216885    34417.053 
 7470000   0.79302274  -0.14588203    2.1876981    34417.053 
 7480000   0.80162279 -0.058097801    2.2068954    34417.053 
 7490000     0.801973  -0.17564522    2.1893684    34417.053 
 7500000   0.79689225  -0.16105988    2.1878986    34417.053 
 7510000   0.80574222  -0.12362701    2.2020203    34417.053 
 7520000   0.80186352 -0.095860966    2.1927187    34417.053 
 7530000   0.80195969 -0.089274743    2.1988262    34417.053 
 7540000   0.79766545 -0.081168141    2.1909289    34417.053 
 7550000   0.80017791  -0.20374981    2.1794568    34417.053 
 7560000   0.79581284  -0.11764263    2.1781774    34417.053 
 7570000   0.80378611 -0.084638446     2.190462    34417.053 
 7580000   0.79385441 -0.065708514    2.1764419    34417.053 
 7590000   0.79303842  -0.17801098    2.1672388    34417.053 
 7600000    0.7981519  -0.12905536     2.173918    34417.053 
 7610000   0.80920382 -0.059319552    2.1906882    34417.053 
 7620000   0.80633424  -0.13017792    2.1801478    34417.053 
 7630000   0.80068176 -0.095901136    2.1783939    34417.053 
 7640000   0.80165915 -0.081988332    2.1772112    34417.053 
 7650000   0.79775723 -0.094131268    2.1673604    34417.053 
 7660000   0.80134228 -0.085078721    2.1753566    34417.053 
 7670000   0.79890543  -0.10751517    2.1661478    34417.053 
 7680000    0.7957546  -0.13524369    2.1640057    34417.053 
 7690000   0.79783918  -0.13109557    2.1543601    34417.053 
 7700000   0.80248296  -0.12835811    2.1654857    34417.053 
 7710000   0.79906369  -0.08057915    2.1657388    34417.053 
 7720000   0.80883419  -0.11812297    2.1701143    34417.053 
 7730000   0.79904015  -0.10106084    2.1609396    34417.053 
 7740000   0.79495995 -0.079109739    2.1534485    34417.053 
 7750000    0.8077198  -0.13710251     2.173382    34417.053 
 7760000   0.80461892 -0.064643462    2.1671999    34417.053 
 7770000   0.79995739  -0.12157835    2.1552217    34417.053 
 7780000   0.79679303 -0.083443775    2.1485199    34417.053 
 7790000   0.79120167  -0.17040739    2.1435728    34417.053 
 7800000   0.80414384 -0.072454318     2.163293    34417.053 
 7810000   0.79927271  -0.14875187    2.1514578    34417.053 
 7820000    0.7927337  -0.16916872    2.1392982    34417.053 
 7830000    0.7963766  -0.13080575    2.1532745    34417.053 
 7840000   0.79939556  -0.15432798     2.145199    34417.053 
 7850000   0.80143361 -0.079929408    2.1627987    34417.053 
 7860000   0.80200296  -0.10112477    2.1549029    34417.053 
 7870000   0.79855976  -0.14654162    2.1454557    34417.053 
 7880000   0.80493306  -0.12337325    2.1438085    34417.053 
 7890000   0.80503399  -0.12922827    2.1511269    34417.053 
 7900000   0.79870518  -0.12932756    2.1331026    34417.053 
 7910000   0.79602647  -0.11205487     2.140224    34417.053 
 7920000   0.80078285  -0.10674333    2.1489682    34417.053 
 7930000   0.79475381 -0.064769904    2.1393543    34417.053 
 7940000   0.80417132  -0.14218058    2.1465533    34417.053 
 7950000   0.79891334   -0.1013302    2.1393966    34417.053 
 7960000   0.79403195  -0.07467323     2.137875    34417.053 
 7970000   0.80673693  -0.10433202    2.1466108    34417.053 
 7980000   0.79805018  -0.15766099    2.1338371    34417.053 
 7990000   0.79741295 -0.087137472    2.1276096    34417.053 
 8000000   0.80042359 -0.060402792    2.1430003    34417.053 
 8010000   0.79953448 -0.082671804    2.1367046    34417.053 
 8020000   0.80298143  -0.11127119    2.1369911    34417.053 
 8030000     0.802131 -0.023088367    2.1468387    34417.053 
 8040000   0.80156717   -0.1276249    2.1365335    34417.053 
 8050000   0.80627557  -0.17258429    2.1460424    34417.053 
 8060000   0.80047232  -0.12725109    2.1346332    34417.053 
 8070000   0.80421497   -0.1012236    2.1443717    34417.053 
 8080000   0.80486418   -0.1195522     2.146985    34417.053 
 8090000   0.80378335  -0.11775552    2.1341128    34417.053 
 8100000   0.80191579  -0.15904549    2.1306532    34417.053 
 8110000   0.79619951   -0.1196201    2.1222863    34417.053 
 8120000   0.80184769    -0.146817    2.1403688    34417.053 
 8130000   0.79880056   -0.1118659    2.1371471    34417.053 
 8140000   0.79394488  -0.08470631    2.1188096    34417.053 
 8150000    0.7995495  -0.15334102    2.1279166    34417.053 
 8160000   0.79603071 -0.073556382    2.1313888    34417.053 
 8170000   0.79773981  -0.11472318    2.1264967    34417.053 
 8180000   0.80065236  -0.13480577    2.1272821    34417.053 
 8190000   0.79472176  -0.12480207    2.1174449    34417.053 
 8200000   0.80536802 -0.061175881    2.1286988    34417.053 
 8210000   0.79280064  -0.10648527    2.1263648    34417.053 
 8220000   0.79773365  -0.11822023    2.1276435    34417.053 
 8230000   0.80015308 -0.053700975    2.1283049    34417.053 
 8240000   0.80348638  -0.13287152    2.1357472    34417.053 
 8250000   0.80068028 -0.030471588    2.1237176    34417.053 
 8260000   0.80394081  -0.15073684    2.1227601    34417.053 
 8270000   0.79667135 -0.069280016    2.1154099    34417.053 
 8280000   0.79748056  -0.11669678    2.1200511    34417.053 
 8290000   0.80339407  -0.15648841    2.1347874    34417.053 
 8300000   0.80176219  -0.12094027    2.1217216    34417.053 
 8310000   0.80008228  -0.14573271    2.1234206    34417.053 
 8320000   0.79756071 -0.068303371    2.1167904    34417.053 
 8330000   0.79686831  -0.11166035    2.1114687    34417.053 
 8340000    0.7975048  -0.13877532    2.1121302    34417.053 
 8350000   0.80507059  -0.11658195    2.1292694    34417.053 
 8360000   0.80052748   -0.1069756    2.1175658    34417.053 
 8370000   0.79642424 -0.084272952    2.1116444    34417.053 
 8380000    0.7962264  -0.13994983    2.1149691    34417.053 
 8390000    0.8002592  -0.02088389    2.1235501    34417.053 
 8400000   0.79937353  -0.15269998    2.1165591    34417.053 
 8410000   0.80342654  -0.12731379    2.1174296    34417.053 
 8420000   0.80026484 -0.077239593    2.1160086    34417.053 
 8430000   0.80439669  -0.10784744    2.1210977    34417.053 
 8440000   0.80413192  -0.12686593    2.1261061    34417.053 
 8450000   0.79726142  -0.10343678    2.1127997    34417.053 
 8460000   0.80691932 -0.098507935    2.1247598    34417.053 
 8470000   0.80311907  -0.12347537    2.1134344    34417.053 
 8480000   0.79439357  -0.12372028    2.1119315    34417.053 
 8490000   0.80209295 -0.095227291    2.1035517    34417.053 
 8500000   0.79752109  -0.10129731    2.1080779    34417.053 
 8510000   0.80082591  -0.15717089      2.10139    34417.053 
 8520000   0.80026897  -0.11109713    2.1147664    34417.053 
 8530000   0.80565544  -0.11939074     2.115587    34417.053 
 8540000   0.80174671  -0.19358802    2.1100131    34417.053 
 8550000   0.80068788 -0.083608215    2.1070059    34417.053 
 8560000   0.79429651 -0.067377813    2.1069545    34417.053 
 8570000    0.8028575 -0.069333269    2.1162232    34417.053 
 8580000   0.80243384  -0.10546161    2.1128284    34417.053 
 8590000   0.80007333 -0.030914157    2.1148401    34417.053 
 8600000    0.8007325  -0.13145592     2.101786    34417.053 
 8610000   0.80099125  -0.12956545    2.1073417    34417.053 
 8620000    0.7983646 -0.085182635    2.1078174    34417.053 
 8630000   0.79903554 -0.068800308    2.0991635    34417.053 
 8640000   0.80530555  -0.13635548    2.1025154    34417.053 
 8650000   0.79877735  -0.10695377    2.1010672    34417.053 
 8660000   0.80040947 -0.098236918    2.1041789    34417.053 
 8670000   0.80276068  -0.14303726    2.1077063    34417.053 
 8680000   0.79136348  -0.12992411    2.1006241    34417.053 
 8690000   0.80091929  -0.09301327    2.1055381    34417.053 
 8700000   0.80293758  -0.18350792    2.1065157    34417.053 
 8710000   0.79986675  -0.08506017    2.1065578    34417.053 
 8720000   0.79845541  -0.15261834    2.1009612    34417.053 
 8730000   0.80404408 -0.066411077    2.1121534    34417.053 
 8740000   0.79773358  -0.13572336      2.10028    34417.053 
 8750000    0.7944336 -0.098672906    2.0991606    34417.053 
 8760000   0.80065074  -0.13176291    2.1075792    34417.053 
 8770000   0.80390192  -0.10769546    2.1095039    34417.053 
 8780000   0.80416521  -0.14991447    2.1038251    34417.053 
 8790000   0.79621254  -0.12316508    2.0961766    34417.053 
 8800000   0.79763294 -0.095417737     2.095157    34417.053 
 8810000   0.79678433  -0.10414749    2.0887109    34417.053 
 8820000   0.79857937 -0.066989209    2.0987728    34417.053 
 8830000   0.79704401 -0.093876517    2.0962895    34417.053 
 8840000   0.79080878  -0.15199339    2.0901379    34417.053 
 8850000   0.80250784 -0.041257772     2.101986    34417.053 
 8860000   0.79723498  -0.05603675     2.095345    34417.053 
 8870000    0.7999712  -0.12676347     2.091672    34417.053 
 8880000   0.79935465  -0.14282886    2.0912317    34417.053 
 8890000   0.79430565 -0.085682677    2.0968201    34417.053 
 8900000   0.79743348  -0.14763851     2.085302    34417.053 
 8910000   0.79773821 -0.096600379    2.0918541    34417.053 
 8920000   0.79995142 -0.066863244    2.0972006    34417.053 
 8930000   0.80356151 -0.068301091    2.0979272    34417.053 
 8940000   0.79638935  -0.10753113    2.0932798    34417.053 
 8950000   0.79525064 -0.062648508    2.0824329    34417.053 
 8960000   0.80253301 -0.056562299    2.1046032    34417.053 
 8970000   0.79267179    -0.105051    2.0889917    34417.053 
 8980000   0.81201174  -0.11180421    2.1054663    34417.053 
 8990000    0.8141912 -0.069480378    2.1148233    34417.053 
 9000000   0.79793299 -0.095273444    2.0957772    34417.053 
 9010000   0.80311759 -0.094164695    2.0997746    34417.053 
 9020000   0.80237421 -0.099336992    2.0955309    34417.053 
 9030000     0.799536  -0.14299195    2.0817832    34417.053 
 9040000   0.80358588 -0.089594378    2.0938895    34417.053 
 9050000   0.80100147 -0.051976782    2.0909453    34417.053 
 9060000   0.79917684  -0.14150266    2.0778499    34417.053 
 9070000   0.80194043 -0.074299835    2.0891102    34417.053 
 9080000   0.80159702 -0.085682008    2.0892298    34417.053 
 9090000   0.80214485   -0.1310972    2.0952723    34417.053 
 9100000   0.80618322 -0.078617624    2.0896519    34417.053 
 9110000   0.79995002  -0.10538949    2.0795003    34417.053 
 9120000   0.80483508  -0.17515585    2.0864993    34417.053 
 9130000   0.80271041 -0.092202664    2.0856645    34417.053 
 9140000   0.79525287   -0.1645195      2.07363    34417.053 
 9150000   0.79796266  -0.15403445     2.074155    34417.053 
 9160000   0.81061388  -0.10907958    2.0942615    34417.053 
 9170000   0.79730331 -0.064005018    2.0817803    34417.053 
 9180000   0.79599621  -0.11463055    2.0755271    34417.053 
 9190000   0.80176385 -0.059524683    2.0867126    34417.053 
 9200000   0.79736253  -0.14667782    2.0823686    34417.053 
 9210000   0.80050196 -0.081120717    2.0852653    34417.053 
 9220000   0.79404405  -0.13314955    2.0741534    34417.053 
 9230000   0.80375844 -0.074992371    2.0863171    34417.053 
 9240000   0.79725071  -0.14586948    2.0768803    34417.053 
 9250000   0.80215026  -0.10554104    2.0826902    34417.053 
 9260000   0.79889492  -0.11596456    2.0840844    34417.053 
 9270000   0.80010583  -0.10377797    2.0802068    34417.053 
 9280000    0.8031289 -0.098036215    2.0811087    34417.053 
 9290000   0.79758968  -0.15573005    2.0728436    34417.053 
 9300000   0.80039254  -0.13518197    2.0818776    34417.053 
 9310000   0.79543663  -0.12933504    2.0660935    34417.053 
 9320000   0.80182262 -0.067261998    2.0795871    34417.053 
 9330000   0.80091896  -0.12587728     2.083393    34417.053 
 9340000   0.80154694 -0.051901704    2.0792317    34417.053 
 9350000   0.80496603  -0.12955505    2.0811088    34417.053 
 9360000    0.7941632 -0.048319702    2.0722266    34417.053 
 9370000   0.79933429   -0.1208095    2.0762562    34417.053 
 9380000   0.79729277  -0.12366165     2.075359    34417.053 
 9390000   0.80032307  -0.14041876    2.0788266    34417.053 
 9400000   0.79896822 -0.053977016    2.0756551    34417.053 
 9410000   0.79894902   -0.1294123    2.0742508    34417.053 
 9420000   0.81076962  -0.11936101    2.0836028    34417.053 
 9430000   0.80169045 -0.057440851     2.085074    34417.053 
 9440000   0.79385397  -0.04222108    2.0684004    34417.053 
 9450000   0.80273116 -0.064102258    2.0760319    34417.053 
 9460000   0.79698195 -0.081051987    2.0749347    34417.053 
 9470000    0.8042185 -0.075413206    2.0823567    34417.053 
 9480000   0.80298672 -0.072589949    2.0753407    34417.053 
 9490000    0.8014592 -0.066623991    2.0806408    34417.053 
 9500000    0.8002396  -0.15147539    2.0755689    34417.053 
 9510000     0.799788 -0.065709497    2.0741361    34417.053 
 9520000   0.79236401  -0.10667129      2.06278    34417.053 
 9530000   0.79507111  -0.14769965    2.0624483    34417.053 
 9540000   0.79508619  -0.11936617    2.0701937    34417.053 
 9550000   0.79831062  -0.07456451    2.0792755    34417.053 
 9560000   0.80372657 -0.073720684    2.0739859    34417.053 
 9570000    0.7951211 -0.077514039    2.0653219    34417.053 
 9580000   0.79521869  -0.13380759    2.0566525    34417.053 
 9590000   0.80569003   -0.1376402     2.075957    34417.053 
 9600000   0.80201377 -0.089977537    2.0741612    34417.053 
 9610000   0.80481794 -0.064828093    2.0904194    34417.053 
 9620000   0.80520705 -0.093125218     2.085263    34417.053 
 9630000   0.80070741  -0.13540541    2.0747849    34417.053 
 9640000   0.79370709 -0.038143808    2.0677642    34417.053 
 9650000   0.79857833  -0.10272413    2.0720813    34417.053 
 9660000   0.80068797 -0.080976237    2.0768614    34417.053 
 9670000   0.79935035 -0.073580433    2.0778747    34417.053 
 9680000   0.79834883 -0.082972688    2.0633447    34417.053 
 9690000   0.79490198 -0.074816226    2.0708466    34417.053 
 9700000   0.80232745   -0.0876843    2.0708264    34417.053 
 9710000   0.80466787  -0.19534104    2.0751617    34417.053 
 9720000   0.80216044  -0.10345914    2.0780269    34417.053 
 9730000   0.79483778 -0.046894565    2.0637796    34417.053 
 9740000   0.79937955 -0.070445562    2.0825854    34417.053 
 9750000   0.79441343  -0.09204441    2.0731452    34417.053 
 9760000   0.79771936 -0.094965336    2.0674585    34417.053 
 9770000   0.80225532 -0.079587489    2.0764391    34417.053 
 9780000    0.8063556 -0.078868508    2.0844822    34417.053 
 9790000   0.80472519 -0.042112773    2.0870619    34417.053 
 9800000   0.79878639 -0.073977273    2.0653108    34417.053 
 9810000   0.79893055  -0.13194983    2.0550353    34417.053 
 9820000   0.79428692 -0.042257615    2.0699074    34417.053 
 9830000   0.79935896 -0.068222062    2.0749657    34417.053 
 9840000   0.80276728  -0.10321886    2.0753402    34417.053 
 9850000    0.8007382  -0.13909362    2.0735516    34417.053 
 9860000   0.79683588 0.0021267072    2.0693593    34417.053 
 9870000    0.7944258 -0.098532039    2.0647053    34417.053 
 9880000   0.79603505  -0.16999397    2.0648895    34417.053 
 9890000   0.79933994  -0.16576098    2.0662137    34417.053 
 9900000   0.80714979  -0.14201878    2.0798906    34417.053 
 9910000   0.80529942 -0.071200575    2.0788598    34417.053 
 9920000   0.79844408  -0.12096474    2.0608565    34417.053 
 9930000   0.80367458  -0.11397613    2.0734684    34417.053 
 9940000     0.798382  -0.06928362    2.0612713    34417.053 
 9950000   0.79688317  -0.13409029    2.0584861    34417.053 
 9960000   0.80243143   -0.1135756    2.0736146    34417.053 
 9970000   0.80254419  -0.13394238     2.070145    34417.053 
 9980000   0.80069833 -0.077639665    2.0754251    34417.053 
 9990000    0.7972598  -0.14675581    2.0683678    34417.053 
10000000   0.79742931  -0.14317058    2.0650085    34417.053 
10010000   0.79747041  -0.08693055    2.0708369    34417.053 
10020000   0.79417827 -0.047901181    2.0649739    34417.053 
10030000    0.8036024 -0.092843774     2.073262    34417.053 
10040000   0.79952942  -0.13949692    2.0658314    34417.053 
10050000   0.80180969 -0.065574143    2.0751585    34417.053 
10060000   0.80520142 -0.092439225     2.082177    34417.053 
10070000   0.79934657  -0.14295743    2.0615369    34417.053 
10080000   0.79818975  -0.13378903    2.0593651    34417.053 
10090000   0.79472037  -0.10287883    2.0627449    34417.053 
10100000   0.80355395 -0.055964571    2.0759566    34417.053 
10110000   0.80346588 -0.048955879    2.0820333    34417.053 
10120000   0.80179373  -0.13605122    2.0702434    34417.053 
10130000   0.79685497 -0.058912388    2.0718771    34417.053 
10140000   0.79981166  -0.12998949    2.0636289    34417.053 
10150000    0.7949213  -0.10030085    2.0558261    34417.053 
10160000   0.79936517 -0.062899685    2.0713208    34417.053 
10170000   0.80084434  -0.09929476    2.0642708    34417.053 
10180000   0.79598408 -0.076356579    2.0610909    34417.053 
10190000    0.8037743 -0.058437649    2.0765794    34417.053 
10200000   0.79695846 -0.092737044    2.0577723    34417.053 
10210000   0.80114172  -0.10629897     2.064865    34417.053 
10220000   0.80088266  -0.11565145    2.0510991    34417.053 
10230000   0.80294496 -0.064454615    2.0605889    34417.053 
10240000   0.79910964 -0.061149555    2.0586875    34417.053 
10250000   0.80147716 -0.033346978    2.0714146    34417.053 
10260000    0.8063994 -0.093395009    2.0630739    34417.053 
10270000   0.80044742  -0.10993095    2.0595359    34417.053 
10280000   0.79346437  -0.14806319    2.0469247    34417.053 
10290000   0.79313556  -0.11419494    2.0487116    34417.053 
10300000   0.80062422 -0.068892326    2.0556191    34417.053 
10310000   0.80252412  -0.13629379    2.0599816    34417.053 
10320000   0.80059182  -0.14625253    2.0592577    34417.053 
10330000   0.79680504  -0.16791086    2.0522487    34417.053 
10340000   0.80003248 -0.074230778    2.0597072    34417.053 
10350000    0.7972657  -0.11693632     2.059054    34417.053 
10360000   0.80410718 -0.082559407    2.0630992    34417.053 
10370000   0.80762372  -0.11390167    2.0601832    34417.053 
10380000   0.79755699  -0.18936436    2.0513153    34417.053 
10390000    0.7951055 -0.097137283    2.0539666    34417.053 
10400000   0.80034343 -0.053299711    2.0605775    34417.053 
10410000   0.79984121 -0.065184638    2.0584678    34417.053 
10420000   0.79623817 -0.033428665    2.0554712    34417.053 
10430000    0.8009561 -0.098566437    2.0631212    34417.053 
10440000   0.79319902  -0.10190628    2.0400819    34417.053 
10450000   0.79387378   -0.1366406    2.0533788    34417.053 
10460000   0.79486391 -0.057192961    2.0541178    34417.053 
10470000   0.80147418   -0.1234441    2.0581611    34417.053 
10480000   0.79925923  -0.16696838    2.0574003    34417.053 
10490000   0.79573283  -0.11615859    2.0518932    34417.053 
10500000    0.7986918 -0.093601435    2.0613684    34417.053 
10510000   0.79672808  -0.10325179    2.0527496    34417.053 
10520000   0.80377016 -0.050002955    2.0728989    34417.053 
10530000   0.80470128 -0.025135186    2.0620356    34417.053 
10540000   0.79690261 -0.096896622    2.0513694    34417.053 
10550000   0.80012433  -0.10129708    2.0512261    34417.053 
10560000   0.79976544 -0.089314745    2.0656341    34417.053 
10570000   0.79476734  -0.11020299    2.0526247    34417.053 
10580000   0.80294729 -0.087093411    2.0580688    34417.053 
10590000   0.80596301 -0.022490797    2.0698944    34417.053 
10600000    0.8036906 -0.064771451    2.0605121    34417.053 
10610000   0.80454503  -0.11784471    2.0602699    34417.053 
10620000   0.79792885 -0.069430362    2.0516305    34417.053 
10630000   0.79493664  -0.11296508    2.0505697    34417.053 
10640000   0.80175189 -0.031864077    2.0656471    34417.053 
10650000   0.79530809 -0.039851483    2.0544296    34417.053 
10660000   0.79842003 -0.066468032    2.0546993    34417.053 
10670000   0.80182981  -0.16298028    2.0511487    34417.053 
10680000    0.8051164  -0.10243601    2.0597782    34417.053 
10690000   0.79984099  -0.10596154    2.0540907    34417.053 
10700000   0.80278002  -0.05554532    2.0579229    34417.053 
10710000   0.80273472 -0.087081525    2.0527121    34417.053 
10720000   0.79114348 -0.066755471    2.0416726    34417.053 
10730000   0.80423836  -0.16018001    2.0604092    34417.053 
10740000   0.79613393 -0.064736095    2.0526883    34417.053 
10750000   0.79823712 -0.031289715    2.0516133    34417.053 
10760000   0.80098463  -0.18249955    2.0522815    34417.053 
10770000   0.79910065   -0.1075185    2.0573319    34417.053 
10780000   0.79697741  -0.12979716     2.054099    34417.053 
10790000   0.80167868  -0.07590594    2.0553528    34417.053 
10800000   0.80170482  -0.15050128    2.0532943    34417.053 
10810000   0.80600941 -0.099343671    2.0646967    34417.053 
10820000   0.79828646 -0.071460935    2.0490985    34417.053 
10830000   0.79461586  -0.10394777    2.0497238    34417.053 
10840000   0.79952999 -0.062783433    2.0586267    34417.053 
10850000   0.80579429  -0.12678427    2.0624704    34417.053 
10860000   0.80209838  -0.11826361    2.0559158    34417.053 
10870000   0.79810639  -0.13255978     2.051083    34417.053 
10880000   0.80686964  -0.12615328    2.0664721    34417.053 
10890000   0.79719308  -0.17134132    2.0380577    34417.053 
10900000   0.80413978  -0.13601852    2.0546637    34417.053 
10910000    0.8036613   -0.1244751    2.0566903    34417.053 
10920000   0.80154867  -0.11666152    2.0595648    34417.053 
10930000   0.79781089  -0.14301833    2.0583347    34417.053 
10940000   0.79861754  -0.10163238     2.048517    34417.053 
10950000   0.80514043 -0.049233878    2.0644569    34417.053 
10960000   0.80664914  -0.18993698    2.0579967    34417.053 
10970000    0.7985924  -0.11213389    2.0535318    34417.053 
10980000   0.79653499 -0.093751818    2.0473909    34417.053 
10990000   0.80601115  -0.12923943    2.0618704    34417.053 
11000000   0.80500398 -0.090149953    2.0539089    34417.053 
11010000   0.80023534  -0.16224523    2.0506239    34417.053 
11020000   0.79688878  -0.11057284    2.0575727    34417.053 
11030000    0.7998285   -0.1178998     2.055531    34417.053 
11040000   0.80628514  -0.11930892    2.0666852    34417.053 
11050000   0.79526792  -0.10658114    2.0489834    34417.053 
11060000   0.79405291 -0.097593339    2.0449132    34417.053 
11070000   0.80328459 -0.093365188    2.0634271    34417.053 
11080000   0.80192109  -0.13462323     2.052767    34417.053 
11090000    0.8063699  -0.10832883    2.0661268    34417.053 
11100000   0.79618797 -0.099041207    2.0548284    34417.053 
11110000   0.79643057   -0.1332116      2.04582    34417.053 
11120000   0.80461069  -0.17541794    2.0541611    34417.053 
11130000   0.79690339  -0.10231346    2.0497722    34417.053 
11140000    0.8021568  -0.14362257    2.0583655    34417.053 
11150000   0.79397928 -0.059443815    2.0414106    34417.053 
11160000   0.80335449 -0.049693149    2.0522201    34417.053 
11170000   0.80077439  -0.11261999    2.0597776    34417.053 
11180000   0.80712283  -0.12970021     2.059239    34417.053 
11190000   0.80337428 -0.050919357    2.0573669    34417.053 
11200000   0.80305069   -0.1164188    2.0548446    34417.053 
11210000   0.80470957 -0.082392261    2.0543389    34417.053 
11220000   0.79769635  -0.10250471    2.0545938    34417.053 
11230000   0.80030849  -0.17785886    2.0534369    34417.053 
11240000    0.7950589  -0.18516642    2.0414909    34417.053 
11250000    0.8059863  -0.12545437    2.0584575    34417.053 
11260000   0.80126926  -0.14530108    2.0547702    34417.053 
11270000   0.80374124  -0.11318347    2.0588438    34417.053 
11280000   0.79988059  -0.11671961    2.0567601    34417.053 
11290000   0.79611789 -0.096089098    2.0497193    34417.053 
11300000   0.79873151  -0.12864981    2.0487217    34417.053 
11310000   0.79237115  -0.10919675    2.0421116    34417.053 
11320000   0.79283553  -0.11539907    2.0389325    34417.053 
11330000   0.79108846 -0.063300044    2.0409568    34417.053 
11340000   0.79818158 -0.060700118    2.0468795    34417.053 
11350000   0.79561183 -0.098788445    2.0390525    34417.053 
11360000   0.79886353  -0.15534811     2.049001    34417.053 
11370000   0.79265034  -0.11505236    2.0413787    34417.053 
11380000   0.80175435  -0.10256163    2.0554764    34417.053 
11390000   0.80478924  -0.15546439    2.0509924    34417.053 
11400000   0.79917221  -0.12629432    2.0417965    34417.053 
11410000    0.8039571   -0.1834608    2.0498241    34417.053 
11420000   0.79673698  -0.05470476    2.0543085    34417.053 
11430000   0.79967212 -0.053719199     2.054299    34417.053 
11440000   0.79980409 -0.077165593    2.0576143    34417.053 
11450000   0.79539174  -0.07991645     2.046373    34417.053 
11460000   0.79392404    -0.170579    2.0359595    34417.053 
11470000   0.80096377 -0.094297452    2.0480659    34417.053 
11480000   0.80112602  -0.10123191    2.0506094    34417.053 
11490000   0.79902651 -0.082740876     2.051144    34417.053 
11500000   0.80117076  -0.13217791    2.0445924    34417.053 
11510000   0.80349819  -0.11834034     2.045669    34417.053 
11520000   0.79697339  -0.10261222    2.0563856    34417.053 
11530000   0.80204391  -0.07232714    2.0564791    34417.053 
11540000   0.79238081 -0.082897695    2.0355409    34417.053 
11550000    0.8033379 -0.088874641    2.0485142    34417.053 
11560000   0.80735343 -0.046872119    2.0657571    34417.053 
11570000   0.79998689  -0.11743127    2.0459348    34417.053 
11580000   0.80124597  -0.12643976    2.0493302    34417.053 
11590000    0.7980183 -0.094658238    2.0417627    34417.053 
11600000   0.79347778 -0.097795514    2.0387998    34417.053 
11610000   0.80048558 -0.081865517    2.0518735    34417.053 
11620000   0.80546438  -0.10977244    2.0636287    34417.053 
11630000   0.79726364  -0.15942035    2.0372207    34417.053 
11640000   0.80118656 -0.072801575    2.0498015    34417.053 
11650000   0.80554567 -0.093607653    2.0556409    34417.053 
11660000   0.80335664  -0.08958759    2.0627178    34417.053 
11670000   0.79291141  -0.11684697     2.040934    34417.053 
11680000   0.80024683  -0.14699644    2.0408288    34417.053 
11690000   0.79347231  -0.07245485    2.0405347    34417.053 
11700000    0.8022645 -0.034100944    2.0608673    34417.053 
11710000    0.8012852  -0.16990631    2.0417059    34417.053 
11720000   0.79119442  -0.12112124    2.0242868    34417.053 
11730000   0.79614816  -0.11771207    2.0381916    34417.053 
11740000    0.8008458  -0.14000225    2.0472358    34417.053 
11750000   0.79681934  -0.10194888    2.0371264    34417.053 
11760000   0.79997242 -0.085742668    2.0436303    34417.053 
11770000    0.8020809  -0.10019158    2.0475561    34417.053 
11780000   0.80286165  -0.15514012    2.0406308    34417.053 
11790000   0.80198898 -0.036056914    2.0470251    34417.053 
11800000   0.79209622 -0.079222692    2.0300332    34417.053 
11810000   0.80054545 -0.088971048    2.0388274    34417.053 
11820000   0.80359794 -0.030990836     2.048789    34417.053 
11830000   0.79822327 -0.099583888    2.0398603    34417.053 
11840000   0.80027961 -0.074439273    2.0488039    34417.053 
11850000   0.80562166 -0.054304595    2.0612092    34417.053 
11860000   0.79716578  -0.13555623    2.0381126    34417.053 
11870000   0.80074492  -0.16191464    2.0470888    34417.053 
11880000   0.80236591 -0.096100544    2.0492015    34417.053 
11890000   0.80073005   -0.1726615     2.038938    34417.053 
11900000   0.80120988  0.024438282     2.054787    34417.053 
11910000   0.79522209   -0.1080625    2.0369843    34417.053 
11920000   0.79718642  -0.10741476     2.033547    34417.053 
11930000   0.80194066 -0.087990781    2.0462256    34417.053 
11940000   0.79657662  -0.12910885    2.0402227    34417.053 
11950000   0.80470011 -0.078233071    2.0475368    34417.053 
11960000   0.80014711 -0.054814154    2.0393514    34417.053 
11970000   0.80581996  -0.14593651    2.0393974    34417.053 
11980000   0.80621394 -0.074089803    2.0491744    34417.053 
11990000   0.79580431 -0.076666667    2.0355307    34417.053 
12000000   0.80118007  -0.12954171    2.0428177    34417.053 
Loop time of 35848.6 on 216 procs for 5000000 steps with 27950 atoms

Performance: 60253.355 tau/day, 139.475 timesteps/s
99.9% CPU use with 216 MPI tasks x 1 OpenMP threads

MPI task timing breakdown:
Section |  min time  |  avg time  |  max time  |%varavg| %total
---------------------------------------------------------------
Pair    | 418.09     | 506.67     | 620.51     | 191.7 |  1.41
Bond    | 5.2024     | 8.3759     | 12.483     |  49.6 |  0.02
Kspace  | 30693      | 31454      | 31980      | 152.0 | 87.74
Neigh   | 567.26     | 595.76     | 635.17     |  57.7 |  1.66
Comm    | 1033.5     | 1523.8     | 2194.9     | 652.1 |  4.25
Output  | 2.7826     | 2.7839     | 2.8292     |   0.2 |  0.01
Modify  | 1182.1     | 1459.2     | 1730.5     | 329.3 |  4.07
Other   |            | 298        |            |       |  0.83

Nlocal:    129.398 ave 218 max 107 min
Histogram: 58 78 36 24 12 4 1 1 0 2
Nghost:    957.514 ave 1125 max 842 min
Histogram: 19 30 35 26 33 29 15 11 14 4
Neighs:    4799 ave 11331 max 3433 min
Histogram: 93 52 34 18 9 6 1 1 1 1

Total # of neighbors = 1036585
Ave neighs/atom = 37.0871
Ave special neighs/atom = 0.62254
Neighbor list builds = 672505
Dangerous builds = 0
System init for write_restart ...
PPPM initialization ...
  using 12-bit tables for long-range coulomb (src/kspace.cpp:332)
  G vector (1/distance) = 1.0914
  grid = 75 75 75
  stencil order = 5
  estimated absolute RMS force accuracy = 0.000124342
  estimated relative force accuracy = 0.000124342
  using double precision FFTW3
  3d grid and FFT values/proc = 5832 2625
WARNING: Neighbor exclusions used with KSpace solver may give inconsistent Coulombic energies (src/neighbor.cpp:486)
Neighbor list info ...
  update every 1 steps, delay 0 steps, check yes
  max neighbors/atom: 2000, page size: 100000
  master list distance cutoff = 2.8
  ghost atom cutoff = 2.8
  binsize = 1.4, bins = 24 24 24
  2 neighbor lists, perpetual/occasional/extra = 2 0 0
  (1) pair lj/cut, perpetual
      attributes: half, newton on
      pair build: half/bin/newton
      stencil: half/bin/3d/newton
      bin: standard
  (2) pair coul/long, perpetual, skip from (1)
      attributes: half, newton on
      pair build: skip
      stencil: none
      bin: none
Total wall time: 11:20:15
