950
Atoms. Timestep: 0
H 5.665120 1.267320 15.489400
H 2.411680 5.920190 20.903200
H 2.396410 5.939230 20.904300
H 2.497290 5.025220 21.380000
H 2.524900 5.006330 21.376400
H 3.052090 4.374750 21.963900
H 3.088230 4.361990 21.958900
H 3.646490 5.187090 21.871700
H 4.204740 6.012200 21.784500
H 3.293860 5.974000 21.344100
H 3.308210 5.966190 21.343800
H 4.191300 6.008770 21.783900
H 3.621700 5.191760 21.873900
H 5.101280 6.058200 22.225100
H 5.088750 6.043530 22.223700
H 4.543020 5.233090 22.312300
H 4.519150 5.226530 22.313700
H 3.950730 4.159820 22.494700
H 3.912140 4.162110 22.499600
H 5.986200 6.078300 22.663500
H 4.846990 4.444280 22.843500
H 4.881300 4.453990 22.840200
H 5.606150 5.145660 22.903500
H 5.630580 5.165680 22.902800
H 5.997810 6.104200 22.665800
H 3.712520 2.876580 29.136000
H 4.305530 3.554170 29.571000
H 4.667770 2.644620 28.811100
H 5.684850 2.837940 28.806400
H 5.291690 3.534850 29.406200
H 3.075060 3.471660 29.694000
H 2.926210 4.270410 30.335600
H 3.912370 4.251090 30.170800
H 4.898540 4.231770 30.006100
H 5.884700 4.212450 29.841300
H 4.112230 5.625600 31.205700
H 3.305840 5.058810 30.889000
H 5.129310 5.818920 31.201000
H 4.505380 4.928680 30.605900
H 5.491550 4.909370 30.441100
H 6.084560 5.586960 30.876100
H 2.778910 6.858710 20.666200
H 2.776460 6.871870 20.664300
H 3.535620 7.573250 20.724300
H 3.528190 7.570400 20.728800
H 3.866470 6.791300 21.256600
H 3.863460 6.791010 21.254100
H 5.884590 7.018060 22.192600
H 5.885310 6.992310 22.187900
H 4.760910 6.825770 21.693900
H 4.763000 6.837300 21.697300
H 5.330520 7.642780 21.604000
H 5.321250 7.662400 21.610100
H 4.470470 7.855420 21.068300
H 4.458750 7.864580 21.074300
H 6.090110 15.285000 20.207200
H 6.076070 15.297500 20.191000
H 5.885690 15.773300 21.090600
H 5.903080 15.772900 21.101000
H 5.284510 18.666000 13.800000
H 5.285020 18.697700 13.814400
H 5.287800 18.687100 13.806300
H 5.275250 18.677500 13.791900
H 4.637060 19.492000 13.756700
H 4.641620 19.494800 13.761300
H 4.641970 19.507600 13.765600
H 4.641470 19.476600 13.762900
H 5.880920 19.490500 13.752400
H 5.876150 19.475100 13.738300
H 5.881240 19.498400 13.755100
H 5.880730 19.467400 13.751700
H 4.491890 20.515600 13.702100
H 4.490230 20.499400 13.709800
H 4.486430 20.516500 13.699500
H 4.490740 20.529600 13.698100
H 5.483590 20.384100 13.706600
H 5.480230 20.405200 13.699000
H 5.484100 20.414300 13.696900
H 5.484470 20.394100 13.693400
H 5.693700 22.110700 13.594800
H 5.682660 22.102200 13.613100
H 5.672670 22.123200 13.591800
H 5.683180 22.130900 13.579500
H 4.863820 21.478600 13.637500
H 4.871850 21.489800 13.630000
H 4.878650 21.474100 13.642900
H 4.871330 21.460400 13.655000
H 6.080320 21.215000 13.637700
H 6.079800 21.185500 13.658200
H 6.073350 21.208500 13.645100
H 6.085380 21.191700 13.639700
H 6.130870 32.118900 13.259400
H 5.557800 32.378800 14.081500
H 5.387320 32.992500 14.897700
H 5.390710 28.155100 24.196500
H 5.413390 28.156700 24.200600
H 4.568400 29.331500 25.581100
H 4.544970 29.331600 25.575200
H 4.737190 28.609700 24.858400
H 4.761150 28.608500 24.865600
H 5.598000 29.108300 24.961000
H 5.618570 29.114500 24.959800
H 5.681380 29.876200 25.604700
H 5.662190 29.867000 25.609300
H 5.630990 30.795300 26.434600
H 5.613080 30.783300 26.442300
H 4.886780 30.131900 26.155400
H 4.865570 30.127100 26.155000
H 7.757910 1.122410 13.344700
H 8.455510 1.074110 12.629800
H 8.733310 1.876990 13.221500
H 7.811570 1.830670 14.048600
H 7.060310 1.170720 14.059600
H 6.362710 1.219020 14.774500
H 7.113970 1.878970 14.763500
H 8.562830 2.490630 14.037700
H 7.989750 2.750590 14.859800
H 6.316760 2.044320 15.697900
H 7.167630 2.587230 15.467500
H 7.940850 5.894510 22.083600
H 7.942850 5.884700 22.077800
H 8.263640 5.843590 20.881400
H 8.034440 5.060590 21.518800
H 8.041220 5.063790 21.536000
H 8.265020 5.840120 20.888600
H 7.677310 5.809890 23.039000
H 7.503360 4.910980 23.441200
H 7.506630 4.935400 23.459000
H 7.673560 5.830320 23.045100
H 7.339090 5.617750 24.219300
H 7.343780 5.584440 24.211100
H 7.763630 4.732640 22.476800
H 7.756150 4.719240 22.455700
H 6.491240 3.404730 29.123200
H 6.870870 4.193130 29.676500
H 6.722010 4.991880 30.318100
H 8.025230 7.607700 22.234600
H 8.007400 7.620150 22.217300
H 8.382350 6.858410 20.714400
H 8.375060 6.853620 20.708200
H 8.116810 6.783600 21.675600
H 8.107770 6.789430 21.669700
H 8.358760 7.833150 21.062500
H 8.341860 7.832720 21.043000
H 8.199190 8.506610 21.832500
H 8.174320 8.515070 21.803400
H 7.759690 7.532900 23.195900
H 7.585730 6.633990 23.598000
H 7.573180 6.661040 23.592700
H 7.740100 7.555960 23.178800
H 7.851270 6.708800 22.636800
H 7.840480 6.725240 22.631200
H 7.668100 8.357000 23.754900
H 7.639730 8.386690 23.726400
H 7.917320 8.717840 22.785600
H 7.946390 8.698360 22.817900
H 7.305890 6.596850 24.554200
H 7.438900 7.574000 24.392300
H 7.415930 7.610350 24.373700
H 7.320190 6.559180 24.559300
H 11.089500 7.315650 31.334700
H 11.071300 7.317190 31.330800
H 11.559500 6.646820 30.699300
H 11.537800 6.643580 30.697900
H 11.050900 7.844000 32.221800
H 11.065200 7.837200 32.228700
H 11.493000 8.071730 33.141800
H 11.482100 8.082840 33.132200
H 7.721770 14.869100 19.138200
H 6.759690 14.942200 19.495900
H 6.748120 14.966500 19.476400
H 7.732410 14.836500 19.157500
H 8.736130 15.031400 19.267100
H 8.747630 14.996200 19.282800
H 7.797730 15.353600 20.009700
H 7.811710 15.331700 20.022700
H 6.990560 15.555900 20.547600
H 6.974880 15.567800 20.536100
H 9.519400 15.409800 19.828400
H 9.533320 15.378400 19.838100
H 8.696550 15.623900 20.354800
H 8.712170 15.602600 20.363000
H 6.248720 16.275300 21.937600
H 6.228000 16.266400 21.934100
H 7.873700 15.838100 20.881200
H 7.891020 15.826800 20.887900
H 7.949670 16.322600 21.752800
H 7.069870 16.051100 21.412800
H 7.050850 16.052300 21.407700
H 9.691920 16.368700 21.568600
H 8.791470 16.097800 21.228200
H 7.970320 16.322000 21.753100
H 8.772510 16.108400 21.226400
H 9.022340 16.711500 22.279900
H 9.671330 16.378700 21.571500
H 8.999280 16.709700 22.286100
H 9.861710 15.902900 20.671900
H 9.878950 15.880800 20.674800
H 7.034410 16.657500 22.493000
H 7.011270 16.644800 22.495400
H 8.049620 16.817200 22.618300
H 8.025630 16.807100 22.624300
H 7.260410 18.434600 13.774500
H 7.275420 18.464400 13.805300
H 7.271220 18.435500 13.793500
H 7.271740 18.467200 13.812100
H 6.247580 18.316900 13.831400
H 6.251840 18.310000 13.822400
H 6.247070 18.285000 13.811200
H 6.235460 18.290500 13.798500
H 6.474040 20.293800 13.698500
H 6.477050 20.272600 13.684700
H 6.874080 19.352200 13.748400
H 6.874730 19.379100 13.751900
H 6.874600 19.383100 13.753900
H 6.868730 19.353600 13.729600
H 7.467850 20.182500 13.698000
H 7.469630 20.151100 13.675900
H 7.470290 20.153600 13.700000
H 7.470810 20.183800 13.694700
H 6.477460 20.299000 13.695800
H 6.476940 20.268800 13.703300
H 8.082540 19.077200 13.751600
H 8.084260 19.109100 13.759600
H 8.083060 19.108300 13.761600
H 8.075460 19.071100 13.726400
H 8.463640 20.038300 13.696800
H 8.464170 20.068500 13.693500
H 8.461650 20.071100 13.697500
H 8.462210 20.029700 13.667200
H 6.706810 22.252700 13.595300
H 6.696240 22.277600 13.574700
H 6.718650 22.254800 13.570900
H 7.067160 21.097200 13.644600
H 7.073670 21.099700 13.636500
H 7.073150 21.070200 13.654900
H 7.077960 21.070200 13.631000
H 7.678860 21.867700 13.577400
H 7.669890 21.900400 13.577200
H 7.660280 21.900500 13.590800
H 7.669360 21.871600 13.606500
H 6.707330 22.281200 13.560200
H 8.312940 21.090400 13.626000
H 8.317050 21.053300 13.612600
H 8.312410 21.061100 13.643700
H 8.306470 21.092900 13.635700
H 10.771200 22.293600 20.204700
H 9.739470 24.006900 20.225200
H 10.828000 23.498700 19.920800
H 10.045700 23.022800 20.322600
H 10.772500 24.478500 19.728700
H 9.934560 24.982400 19.938500
H 10.578700 25.687900 19.539300
H 11.499300 25.934200 19.134800
H 11.554800 24.954400 19.326800
H 8.014520 29.727600 5.897690
H 8.173290 30.734700 5.717720
H 8.765880 31.578900 5.806960
H 9.633510 32.034000 6.141490
H 9.062220 29.477100 6.510540
H 9.040960 28.275500 6.813160
H 8.332110 28.827400 6.298650
H 9.951150 28.219600 7.303350
H 9.871740 29.173200 7.012890
H 10.818800 28.674700 7.637890
H 11.411400 29.519000 7.727120
H 9.712920 31.080400 6.431960
H 8.982810 30.430700 6.220070
H 9.792330 30.126800 6.722420
H 10.601800 29.822900 7.224770
H 10.522400 30.776500 6.934310
H 11.252600 31.426200 7.146190
H 11.570100 30.526100 7.547150
H 10.543700 31.978100 6.631690
H 7.803870 32.825200 12.421300
H 6.952990 32.282200 12.651700
H 7.006650 32.990500 13.355600
H 6.309060 33.038800 14.070500
H 7.320980 28.445600 23.673500
H 7.304550 28.430300 23.685000
H 6.350350 28.097100 23.764200
H 6.330430 28.089400 23.767000
H 8.052050 29.086400 23.972300
H 8.065190 29.109000 23.952700
H 7.270590 29.364700 24.503400
H 7.255430 29.346600 24.518000
H 6.413170 28.858800 24.409100
H 6.475980 29.620500 25.054100
H 6.458810 29.606800 25.063600
H 6.394620 28.848100 24.415300
H 7.319620 30.105300 25.166300
H 7.333400 30.126400 25.148300
H 6.538800 30.382200 25.699000
H 6.523000 30.365500 25.711900
H 7.526910 31.058500 25.930800
H 7.538580 31.084300 25.907500
H 8.372650 29.882000 24.552100
H 8.383570 29.909400 24.527000
H 8.190820 30.632400 25.242500
H 8.180430 30.603800 25.268900
H 6.601620 31.143900 26.343900
H 6.587190 31.124200 26.360200
H 10.924100 30.541700 29.446900
H 10.930100 30.513800 29.471400
H 10.933900 30.508400 29.474100
H 11.046500 31.473700 29.101400
H 11.042500 31.471500 29.110100
H 11.054600 31.501600 29.081700
H 11.500400 32.403100 29.146400
H 11.519400 32.425300 29.133700
H 11.489000 32.404200 29.161100
H 11.182500 29.780600 30.157400
H 11.192300 29.772900 30.155400
H 11.163000 29.802700 30.131600
H 12.349200 6.009920 30.492900
H 12.325400 6.003650 30.492800
H 13.223000 5.568890 30.770400
H 13.247000 5.575620 30.770700
H 13.990200 5.455770 31.456400
H 14.440200 5.694790 32.371400
H 14.012300 5.460270 31.458300
H 14.421300 5.694620 32.366800
H 12.258400 7.956380 1.301340
H 13.146900 7.534960 1.567710
H 13.156200 7.522070 1.579140
H 13.934500 6.895040 1.362610
H 13.945900 6.885170 1.372720
H 14.415900 6.216340 0.737384
H 12.249200 7.969730 1.290110
H 12.492700 7.369520 33.056200
H 13.335300 6.832170 33.092500
H 13.349300 6.825590 33.100400
H 12.156100 6.706410 31.499700
H 12.137000 6.706440 31.496100
H 12.505600 7.361190 33.064700
H 11.893500 7.306650 32.258000
H 11.909000 7.301600 32.264400
H 12.752700 6.766000 32.300000
H 12.736100 6.769310 32.294300
H 12.979600 6.169100 31.532400
H 12.999800 6.170810 31.535400
H 14.401000 6.221420 33.257800
H 13.578700 6.231960 32.330500
H 13.596400 6.230390 32.335700
H 15.458000 13.133900 2.394810
H 13.251000 15.005900 2.096140
H 15.044500 14.159900 1.835930
H 14.147800 14.582900 1.966030
H 14.806600 14.991800 1.334500
H 14.385700 13.751100 2.467470
H 15.941300 13.736900 1.705830
H 15.944000 14.566600 1.086570
H 12.837500 16.031900 1.537260
H 12.354200 15.428900 2.226240
H 13.671900 16.246600 0.963165
H 13.909800 15.414800 1.464600
H 13.661800 13.150300 3.274280
H 14.623700 12.919200 2.968900
H 12.830100 13.765200 3.229110
H 12.351500 14.599200 2.845500
H 13.489000 14.174100 2.597570
H 14.633700 16.015600 33.185800
H 15.465400 15.400700 33.231000
H 12.642100 22.261300 19.498500
H 11.721500 22.014900 19.903100
H 14.322600 18.930400 25.910300
H 14.325300 18.957300 25.930800
H 14.724400 19.425500 25.094700
H 14.715700 19.451900 25.109400
H 16.624500 20.266400 25.942000
H 15.464900 20.022100 24.678800
H 15.477500 19.999500 24.676100
H 15.756400 19.859700 25.626200
H 15.759800 19.878100 25.623400
H 16.612800 20.254400 25.959300
H 16.372200 20.515100 24.754400
H 16.380100 20.498600 24.766700
H 14.880400 18.650600 27.810500
H 14.379700 18.646700 26.904400
H 14.398300 18.670900 26.923000
H 14.915100 18.669300 27.820100
H 15.190000 19.345700 26.249400
H 15.179000 19.325100 26.243300
H 16.919400 20.122400 26.886600
H 16.891700 20.114500 26.909400
H 16.314200 19.579900 27.526500
H 15.484900 19.201700 27.194100
H 15.457800 19.185200 27.193400
H 16.054700 19.734100 26.568000
H 16.035300 19.719800 26.576300
H 16.349600 19.590000 27.512700
H 15.690600 18.941000 28.386000
H 15.737300 18.953000 28.381700
H 16.593100 19.440100 28.476600
H 16.644500 19.446000 28.457300
H 13.175100 24.926400 18.715200
H 11.666000 22.994700 19.711000
H 12.448300 23.470600 19.309100
H 13.286200 22.966700 19.099400
H 11.610400 23.974600 19.518900
H 13.481300 23.942200 18.812700
H 12.392700 24.450500 19.117100
H 12.449600 25.655500 18.833100
H 16.020900 27.183400 22.364500
H 15.969800 27.214100 22.364600
H 14.773300 27.393400 24.188500
H 14.741100 27.442200 24.193600
H 16.978100 27.003400 22.468200
H 16.706500 27.624800 24.516100
H 15.785200 27.225900 24.329700
H 15.753400 27.269000 24.323800
H 16.734900 27.587900 24.526800
H 14.543300 28.553500 13.265900
H 14.561400 28.581700 13.256200
H 14.572900 28.555800 13.259200
H 14.548200 28.584000 13.248600
H 14.550200 28.551100 13.260000
H 14.042900 29.392200 12.956700
H 14.002900 29.386900 12.974000
H 14.016600 29.386700 12.962100
H 14.024700 29.427200 12.954100
H 14.026100 29.421100 12.972100
H 13.832700 30.401800 13.047800
H 13.824600 30.438200 13.052600
H 13.815100 30.428900 13.079900
H 13.788700 30.395200 13.069700
H 13.807400 30.396600 13.053600
H 14.888800 29.293800 13.837700
H 15.265300 28.113400 13.867500
H 15.243200 29.093800 14.139100
H 15.258600 29.077900 14.149900
H 15.242800 29.079100 14.143700
H 15.257100 29.092800 14.145500
H 15.280700 28.116900 13.874200
H 15.254900 28.134400 13.857200
H 15.265200 28.118300 13.867100
H 15.277700 28.135700 13.856200
H 15.970200 28.191100 14.621800
H 15.982900 28.202600 14.611200
H 15.598800 29.113800 14.518600
H 15.862400 29.407200 14.876800
H 15.851600 29.405600 14.866800
H 15.855300 29.401300 14.884300
H 15.846700 29.406800 14.872500
H 15.955300 28.199000 14.616800
H 15.975100 28.198100 14.616500
H 15.976600 28.193000 14.636900
H 13.958100 31.308400 13.527200
H 13.998700 31.314200 13.508000
H 13.978700 31.309900 13.510000
H 14.001500 31.346000 13.517800
H 13.985000 31.335100 13.550700
H 14.611600 29.713400 13.697100
H 14.639700 29.715600 13.691100
H 14.631300 29.735400 13.703400
H 14.628200 29.740200 13.687500
H 14.517400 30.216600 13.734500
H 14.616500 30.699600 13.969400
H 14.610800 30.692500 13.992700
H 14.617600 30.676600 13.966800
H 14.589200 30.674100 13.973700
H 14.856000 30.959300 14.312200
H 15.937300 29.856600 15.096200
H 15.231600 30.053200 14.420900
H 15.236600 30.049800 14.434800
H 15.236400 30.039000 14.425500
H 15.227400 30.036600 14.415400
H 15.220400 30.039800 14.420200
H 15.216000 31.006900 14.724100
H 15.198000 31.000600 14.696800
H 15.214300 31.000000 14.701200
H 15.220000 31.012600 14.702800
H 15.565900 30.779300 14.993100
H 15.833200 30.362300 15.159900
H 15.835100 30.366200 15.154400
H 15.841800 30.364200 15.166100
H 15.829100 30.366300 15.143300
H 14.496300 31.884900 14.214100
H 14.490200 31.897000 14.258400
H 14.465700 31.881600 14.224000
H 14.484600 31.882100 14.209000
H 14.508000 31.907500 14.225000
H 15.192200 31.961000 14.976800
H 15.189500 31.959700 14.963300
H 15.175600 31.961300 14.973400
H 15.208400 31.972000 14.984700
H 15.195500 31.963900 15.013400
H 16.474200 28.763700 15.343000
H 16.482700 28.771300 15.313300
H 16.488200 28.764500 15.318900
H 16.476000 28.763200 15.320700
H 16.461800 28.760400 15.324000
H 16.658100 29.670800 15.789700
H 16.638700 29.668300 15.789200
H 16.652100 29.684400 15.770800
H 16.640100 29.676100 15.803200
H 16.647300 29.676600 15.777100
H 16.438100 30.686400 15.868600
H 16.438500 30.679200 15.887800
H 16.437900 30.692800 15.866500
H 16.430000 30.685700 15.894300
H 16.447100 30.678600 15.897500
H 15.904500 31.522100 15.570700
H 15.900000 31.522100 15.591800
H 15.897400 31.526200 15.574600
H 15.915000 31.522500 15.593300
H 15.911700 31.517900 15.613300
H 15.191800 27.897200 22.365900
H 15.227000 27.848000 22.366400
H 14.865000 28.812100 22.472600
H 14.852600 28.869600 22.471700
H 13.940600 28.097900 24.160300
H 13.591700 29.007000 24.200100
H 13.970400 28.045300 24.141000
H 15.852000 28.889100 22.613900
H 15.841000 28.923300 22.613800
H 16.399600 28.095600 22.560300
H 16.429900 28.074800 22.559800
H 16.829400 28.977000 22.756000
H 16.839000 28.966200 22.755200
H 15.032000 29.817600 22.654400
H 15.043100 29.870800 22.653600
H 16.270800 29.804800 22.809500
H 16.261100 29.780500 22.809200
H 16.680800 30.950700 23.043700
H 16.644100 30.935800 23.043100
H 15.712300 30.632500 22.863000
H 15.683200 30.594900 22.863300
H 13.566600 29.060600 24.232900
H 14.736300 28.670600 24.357900
H 14.572500 29.104300 24.369200
H 15.163300 28.297400 24.363500
H 15.642700 28.256100 24.439600
H 15.553300 29.201500 24.538400
H 15.532000 29.243200 24.555400
H 16.144100 28.394700 24.532600
H 16.438400 28.828700 24.637200
H 16.534100 29.298700 24.707600
H 14.625600 29.657700 24.473700
H 13.738500 30.020900 24.349700
H 13.719200 30.072200 24.391900
H 14.357500 30.861600 24.594700
H 14.371700 30.815200 24.550000
H 14.962500 30.008300 24.544200
H 16.327700 29.815800 24.753000
H 15.321400 31.177100 24.747100
H 15.310600 31.217400 24.787000
H 15.943300 30.105600 24.713400
H 15.421300 30.230300 24.671200
H 16.333300 31.009600 24.888300
H 16.322900 31.044200 24.917300
H 12.153700 33.056600 29.613300
H 12.194100 33.065100 29.589000
H 12.170300 33.052900 29.594500
H 11.707100 29.482700 30.952100
H 11.748300 29.462100 30.971500
H 11.736100 29.470600 30.975500
H 11.676400 31.416800 29.875900
H 11.613300 30.954000 30.042900
H 11.744500 30.570200 30.403900
H 12.004700 30.424400 30.795500
H 12.025900 30.410100 30.815000
H 12.374400 30.513300 31.178500
H 12.693900 30.836700 31.391500
H 12.710600 30.834800 31.407200
H 12.303400 31.358000 30.658500
H 12.302400 31.366200 30.638900
H 12.306400 31.359900 30.650500
H 12.936400 31.302900 31.425000
H 11.618700 30.933200 30.066300
H 11.896200 31.881100 29.909800
H 12.238400 32.206400 30.122500
H 12.991500 31.778500 31.234900
H 12.988200 31.782700 31.250700
H 12.581000 32.305900 30.502000
H 12.600000 32.308000 30.482300
H 12.868300 32.149500 30.897000
H 11.910900 31.895700 29.886300
H 12.876700 33.249100 30.325500
H 12.897700 33.249800 30.325700
H 12.858500 33.253800 30.345500
H 13.441800 32.929700 31.146300
H 13.430300 32.939100 31.143600
H 13.414600 32.943000 31.161600
H 12.410700 29.667300 31.688800
H 12.442500 29.666800 31.706500
H 12.453200 29.659400 31.703800
H 13.085400 30.307200 32.144100
H 13.112400 30.316600 32.154600
H 13.117800 30.311700 32.155900
H 13.550200 31.230800 32.196100
H 13.566300 31.246000 32.199600
H 13.564300 31.244400 32.206900
H 13.680700 32.190700 31.830900
H 13.672900 32.207500 31.842900
H 13.682700 32.205900 31.829600
H 18.551200 1.767950 1.044390
H 18.536900 1.751890 1.068650
H 18.730300 1.242840 1.949170
H 18.732900 1.267720 1.932440
H 19.622500 1.348320 1.509870
H 19.628900 1.356640 1.497490
H 20.442200 0.988520 1.948150
H 20.443100 0.984693 1.950840
H 20.514600 1.453800 1.070580
H 20.525000 1.445560 1.062540
H 21.335200 1.090170 1.511540
H 21.338300 1.077440 1.513200
H 19.401800 0.790322 2.594270
H 19.394700 0.815135 2.587390
H 18.797400 3.917680 25.971800
H 18.810800 3.901020 25.903400
H 19.342900 4.517250 25.327800
H 19.375200 4.496530 25.272000
H 20.349500 4.684330 26.031400
H 20.362800 4.663920 26.001800
H 20.198600 5.060740 25.117300
H 20.237600 5.036950 25.082400
H 21.135100 5.402510 25.396600
H 21.167200 5.377460 25.385500
H 18.695900 3.409960 26.807600
H 18.708200 3.422670 26.876700
H 19.648900 4.112800 26.458700
H 19.649400 4.095950 26.412300
H 19.061100 3.154950 27.742200
H 19.099100 3.164870 27.800100
H 19.774500 3.722920 27.331600
H 19.799700 3.736400 27.372800
H 20.500300 4.307920 26.945500
H 20.487900 4.290890 26.921100
H 20.613000 3.917860 27.840500
H 21.901500 5.450980 26.090900
H 21.914700 5.426820 26.100100
H 21.201300 4.858860 26.510600
H 21.351800 4.503050 27.432300
H 22.279900 5.171810 27.034600
H 21.326400 4.485820 27.430000
H 22.292500 5.193180 27.014300
H 21.200900 4.879450 26.518200
H 19.808600 3.204320 28.456800
H 19.865500 3.213340 28.494400
H 20.802000 3.555110 28.773700
H 20.738200 3.544820 28.759900
H 21.657700 4.098600 28.563200
H 21.600600 4.085240 28.570300
H 20.651200 3.931520 27.859600
H 22.165000 4.680760 27.938800
H 22.203200 4.698170 27.919200
H 18.898400 2.181800 32.689300
H 18.873400 2.181070 32.716700
H 19.711700 1.813680 33.139900
H 19.694000 1.817440 33.157700
H 20.607800 1.902610 32.705000
H 20.586200 1.922920 32.718400
H 19.681500 2.398380 32.047600
H 19.649700 2.415370 32.073000
H 20.690600 2.359650 31.819400
H 20.657800 2.392030 31.838100
H 21.655300 2.075990 32.065700
H 21.627400 2.117290 32.074900
H 21.406800 1.559290 33.159300
H 22.317200 1.623410 32.720700
H 22.298900 1.664770 32.720000
H 21.421100 1.534490 33.155600
H 21.437300 8.069230 1.931100
H 20.979100 8.874700 1.469430
H 20.935300 8.887200 1.486880
H 21.398100 8.087780 1.954460
H 21.618500 9.299880 2.089410
H 21.653200 9.279590 2.087220
H 20.882200 9.897150 1.338840
H 20.838700 9.907770 1.342190
H 21.134000 10.876000 1.559160
H 21.172500 10.862600 1.574310
H 21.717800 10.294300 2.125550
H 21.749900 10.273500 2.139660
H 21.772300 11.512400 2.112760
H 21.742200 11.532600 2.079660
H 22.134000 7.696570 2.600130
H 22.102900 7.723720 2.619660
H 22.230700 8.690520 2.652580
H 22.202300 8.718140 2.655800
H 22.301600 9.712560 2.691940
H 22.327400 9.684480 2.705020
H 22.401000 10.707000 2.728080
H 21.934000 12.795200 26.977000
H 21.969600 12.811900 26.946700
H 21.983300 12.810600 26.947900
H 22.200400 13.688800 27.793500
H 22.224300 13.692500 27.780700
H 22.232000 13.696000 27.778700
H 21.632000 12.908000 27.916900
H 21.623800 12.904700 27.918100
H 21.595900 12.907400 27.949100
H 21.602300 13.427700 28.811900
H 21.599800 13.419700 28.815900
H 21.581700 13.438400 28.837800
H 21.904000 14.218900 29.399500
H 21.895300 14.245700 29.405000
H 21.902100 14.230500 29.392900
H 22.350100 14.357900 28.521400
H 22.367000 14.357200 28.516700
H 22.364400 14.349600 28.521400
H 17.194300 20.798800 25.316000
H 17.190200 20.789000 25.342200
H 17.784100 20.510800 27.205200
H 17.748000 20.509200 27.242400
H 17.711200 20.797300 26.213000
H 17.690900 20.792900 26.248300
H 17.346200 20.014100 28.058000
H 17.393700 20.016200 28.026700
H 17.946600 27.321500 22.648900
H 17.994800 27.337500 22.647100
H 17.034000 26.996600 22.467200
H 22.155800 33.254600 1.952500
H 22.151600 33.237400 1.963860
H 20.371500 33.043600 2.831100
H 20.359400 33.059500 2.833760
H 21.379500 33.020300 2.596200
H 21.368500 33.020800 2.605540
H 17.826000 29.043200 22.896500
H 17.817800 29.030800 22.898100
H 18.615700 28.083300 22.858300
H 17.388000 28.149300 22.702400
H 17.416900 28.151800 22.701100
H 18.646000 28.114800 22.855900
H 18.806300 29.084500 23.040200
H 18.813000 29.120200 23.037800
H 17.259300 29.858500 22.951600
H 17.248100 29.857500 22.950500
H 18.451100 30.084400 23.143900
H 17.657200 30.748900 23.145900
H 17.689100 30.740000 23.147300
H 18.467100 30.056900 23.146000
H 17.344800 28.414200 24.718900
H 17.368000 28.382200 24.727100
H 17.497400 29.425800 24.878000
H 17.514900 29.396000 24.876800
H 17.123400 30.388500 24.950600
H 17.136100 30.357700 24.935800
H 22.498800 1.123180 1.080680
H 22.492300 1.155720 1.072500
H 27.022800 1.458520 29.256600
H 27.036800 1.471040 29.291000
H 26.456300 0.941108 28.561500
H 26.464400 0.968354 28.589900
H 27.681000 1.454000 30.101200
H 27.662700 1.458520 30.070500
H 22.882500 7.856560 3.297270
H 22.861000 7.892570 3.304220
H 23.469200 8.549080 3.824720
H 23.482200 8.506340 3.835720
H 23.764600 9.517350 4.041690
H 23.772500 9.471810 4.071200
H 22.904800 9.095410 3.270370
H 22.885400 9.130820 3.258330
H 22.424100 10.678400 2.757460
H 23.001500 10.089400 3.322810
H 23.205200 11.337300 3.429420
H 23.675600 10.494300 3.940600
H 23.667900 10.537900 3.897000
H 23.217400 11.299700 3.478940
H 22.984800 10.125200 3.294470
H 27.552900 7.059350 27.157500
H 27.779200 8.130940 27.737600
H 26.192600 7.189400 29.634000
H 26.803100 7.800090 29.129700
H 26.425800 6.677320 28.765000
H 27.168700 7.520250 28.241900
H 26.923700 6.629720 27.858500
H 27.413700 8.410780 28.625300
H 27.048100 8.690630 29.513100
H 27.658600 9.301310 29.008700
H 26.286600 8.028760 30.232800
H 27.274400 9.762220 30.093100
H 26.682500 8.970470 30.400800
H 22.520800 11.672400 2.809900
H 22.500300 11.701400 2.764220
H 22.624100 14.014100 18.485500
H 23.144800 14.896900 18.338800
H 23.161700 14.880600 18.327800
H 22.634100 14.003100 18.481300
H 24.027300 15.437500 18.439200
H 24.006600 15.459100 18.453300
H 24.999100 15.524600 18.785500
H 24.978500 15.550200 18.798200
H 22.586000 13.040100 18.858400
H 22.584000 13.047500 18.854000
H 23.035100 12.255900 19.345600
H 23.030200 12.249700 19.358200
H 23.726800 12.966900 19.337200
H 23.726400 12.978400 19.329500
H 23.847700 11.843700 19.846700
H 23.856700 11.851500 19.828600
H 24.623100 12.821700 19.743500
H 24.621400 12.807400 19.754600
H 24.828600 11.942600 20.173600
H 24.819500 11.930700 20.193000
H 25.685100 12.487600 20.304400
H 25.690400 12.504900 20.288000
H 26.212700 13.365100 20.151000
H 23.528800 13.843600 18.898700
H 23.520900 13.857500 18.899400
H 24.212100 14.580000 18.883300
H 24.225400 14.560800 18.877700
H 24.417600 13.700900 19.313400
H 24.423400 13.684100 19.316100
H 25.314400 13.544200 19.727400
H 25.318000 13.524600 19.733500
H 25.108900 14.423300 19.297300
H 25.120000 14.401300 19.295100
H 25.816600 15.118500 19.274000
H 25.800100 15.145800 19.281200
H 26.211100 13.387600 20.141300
H 26.260800 14.328100 19.773800
H 26.251300 14.354200 19.772800
H 23.157100 13.826900 25.777100
H 23.213100 13.866800 25.776500
H 23.194500 13.872600 25.774100
H 23.714400 14.694400 25.870800
H 23.745400 14.741800 25.887200
H 23.762000 14.737500 25.888000
H 22.505500 13.131800 26.182000
H 22.562000 13.161500 26.164500
H 22.544500 13.166200 26.161900
H 22.824700 14.480300 27.643400
H 22.832000 14.484000 27.640400
H 22.655200 13.800900 26.910000
H 22.684600 13.823300 26.902600
H 23.297000 14.610700 26.764200
H 23.259600 14.582200 26.754300
H 23.285100 14.611100 26.765300
H 22.697000 13.822700 26.902500
H 22.804900 14.470100 27.637900
H 23.409300 15.251400 27.482300
H 23.432100 15.271900 27.502200
H 23.425200 15.268100 27.506000
H 24.013800 16.032700 27.326700
H 24.032100 16.059900 27.363900
H 24.025600 16.056000 27.368700
H 24.061800 15.540200 26.469000
H 24.028000 15.501800 26.438000
H 24.049600 15.541000 26.470800
H 22.451000 15.101100 29.504400
H 22.967100 15.145200 28.378400
H 22.964800 15.137400 28.384100
H 22.954500 15.139200 28.365800
H 22.454900 15.088100 29.512600
H 22.452600 15.113200 29.498700
H 23.104900 15.794500 29.124800
H 23.104200 15.808400 29.093800
H 23.102100 15.806400 29.116400
H 23.675700 16.144900 28.298700
H 23.679800 16.148700 28.340100
H 23.680800 16.157400 28.332900
H 24.295700 21.628600 22.380100
H 24.291700 21.620200 22.368200
H 24.627600 22.251100 21.622400
H 24.622600 22.244000 21.611100
H 25.443700 21.763900 21.933300
H 25.439800 21.759000 21.922600
H 26.257000 21.274100 22.234000
H 26.328600 21.946400 21.504700
H 27.361000 22.260800 20.895400
H 27.356700 22.261800 20.886700
H 27.144700 21.459300 21.815600
H 26.324500 21.944300 21.494900
H 27.141800 21.459300 21.806300
H 26.259800 21.276800 22.244200
H 25.157300 20.286300 23.581300
H 25.158600 20.292800 23.593000
H 26.122300 19.937400 23.723200
H 26.121800 19.933600 23.712300
H 27.122800 19.941000 23.457100
H 27.122600 19.940100 23.447100
H 26.191100 20.607100 22.983700
H 26.189400 20.603800 22.973100
H 25.374900 21.094300 22.672800
H 24.487400 20.903600 23.089400
H 24.490000 20.911800 23.101400
H 25.372200 21.088800 22.661700
H 27.076000 20.789600 22.555100
H 27.074200 20.789100 22.545500
H 25.391400 22.608000 21.020900
H 25.396900 22.612600 21.031300
H 26.392100 22.614500 20.755800
H 26.397400 22.616100 20.765200
H 26.386000 30.669000 28.592800
H 26.388800 30.642000 28.614600
H 26.929600 30.136800 29.295000
H 26.930600 30.124500 29.329100
H 26.845600 31.364200 29.145500
H 26.842700 31.348800 29.157200
H 26.088700 31.573800 28.186800
H 26.090200 31.538100 28.190900
H 26.711400 32.334000 28.941900
H 26.705800 32.314300 28.935600
H 26.117400 32.608700 28.185700
H 26.114900 32.573000 28.171400
H 27.159800 33.021100 29.478200
H 27.171000 33.029200 29.494600
H 27.573900 30.119700 30.105200
H 27.570500 30.124500 30.143000
H 27.439600 31.089600 29.901700
H 27.433600 31.090000 29.921400
H 27.750600 32.762400 30.242400
H 27.305300 32.059400 29.698100
H 27.296700 32.055600 29.699800
H 27.765000 32.754600 30.250800
H 28.224700 0.921785 30.803400
H 28.204600 0.941109 30.785000
H 28.144800 7.851090 26.849800
H 28.540700 8.792810 27.017900
H 28.634700 9.632160 27.616600
H 28.024200 9.021470 28.121000
H 28.401500 10.144200 28.485700
H 27.903600 10.191800 29.392100
H 31.926000 14.746500 22.215900
H 31.645800 13.751900 22.280400
H 30.757200 12.620100 23.669600
H 31.218000 12.973600 22.812500
H 31.156500 13.766300 23.419000
H 31.095100 14.559100 24.025500
H 31.510600 14.652800 23.120700
H 31.449100 15.445500 23.727300
H 31.803200 16.331900 23.429000
H 31.983600 15.690800 22.636300
H 30.387000 12.786200 24.622100
H 30.206500 13.427300 25.414700
H 30.741100 13.672600 24.323800
H 30.679600 14.465400 24.930300
H 30.264200 14.371700 25.835100
H 31.033700 15.351800 24.632100
H 30.544400 15.366200 25.770600
H 30.972200 16.144500 25.238600
H 31.433000 16.498000 24.381500
H 28.222300 20.927900 22.099800
H 28.224000 20.925000 22.108300
H 28.029600 21.641800 21.387000
H 28.026500 21.644500 21.378700
H 27.892100 20.302400 22.866000
H 27.891400 20.304100 22.856900
H 28.137100 30.642000 30.838100
H 28.146200 30.622400 30.806300
H 27.887500 31.796800 30.464000
H 27.899300 31.784800 30.454300
H 28.503100 32.573000 31.208800
H 28.522000 32.545000 31.209500
H 28.478400 31.538100 31.228200
H 28.493200 31.510100 31.210500
950
Atoms. Timestep: 50000
H 4.033650 4.259910 22.326200
H 4.031250 4.304090 22.327800
H 3.962080 5.215310 21.841200
H 3.950680 5.161960 21.824900
H 4.393000 6.109360 21.546500
H 4.368150 6.057340 21.515300