9000
Atoms. Timestep: 0
N 4.892790 2.267580 0.949679
N 4.978440 2.926570 1.738090
N 5.538340 2.937130 2.944260
N 5.545850 3.478630 3.737010
N 4.901290 3.520710 2.557320
N 3.919580 5.418680 3.250120
N 3.789000 4.563940 3.581360
N 5.828250 5.047290 3.169280
N 5.414020 5.644280 2.528710
N 4.754820 5.790010 3.498910
N 5.762200 5.917620 3.533570
N 3.277960 4.034390 4.286450
N 3.377580 3.508140 5.104560
N 3.385660 4.983610 4.867330
N 4.059170 5.264610 4.354780
N 2.755670 4.256710 5.186070
N 3.278290 1.256970 17.964400
N 3.975320 0.773594 17.564900
N 4.743490 1.400990 17.459800
N 5.723410 4.058800 17.553400
N 5.719190 3.983110 18.800500
N 5.267540 4.750540 18.438700
N 3.497360 1.099510 18.948100
N 3.495930 1.235640 20.024700
N 5.356300 1.255940 18.865800
N 5.406800 1.421370 19.833000
N 4.470500 1.975960 20.154200
N 5.956790 2.190270 19.875500
N 5.802070 2.686870 18.960200
N 5.197710 2.506920 20.474400
N 5.727280 3.167850 19.945700
N 3.866980 1.585140 20.812700
N 5.391280 1.144000 22.237800
N 5.885030 1.474220 20.731600
N 3.657710 4.449830 24.064300
N 3.819240 5.680810 23.523400
N 4.607960 4.638840 23.853900
N 4.655900 5.575090 24.036400
N 3.255900 2.567120 25.508500
N 4.094930 2.818630 25.800200
N 3.947400 2.799030 24.869500
N 4.336900 3.636620 25.214500
N 5.045150 4.267570 24.954800
N 5.534680 4.778280 25.625400
N 2.269880 1.084390 29.145300
N 2.940540 1.488650 28.579900
N 2.336840 0.788752 30.075200
N 5.844620 1.639880 31.470200
N 5.456700 2.323780 32.031800
N 5.086570 2.543260 32.929300
N 6.021240 6.159750 2.036240
N 5.303200 7.178810 7.138380
N 4.389580 7.127200 7.449970
N 5.871200 7.797240 6.688730
N 5.054950 7.513260 8.098210
N 5.370160 6.995740 8.864530
N 5.483500 6.532100 18.720400
N 5.942700 7.638770 18.312000
N 3.717620 6.777450 20.458000
N 5.497630 7.275930 19.508100
N 5.694560 7.587350 20.415000
N 5.809970 8.109750 19.267900
N 3.764270 6.992710 21.407200
N 5.373440 6.821610 20.861800
N 5.792260 6.453970 21.936700
N 4.556370 7.239710 20.667300
N 4.884210 6.434200 21.744100
N 4.955250 7.380050 21.865400
N 5.794480 10.062600 22.348500
N 6.029660 10.089300 21.401800
N 4.662190 6.993540 22.776600
N 4.323590 6.092080 22.833200
N 3.949380 11.262900 23.766800
N 3.038390 11.495400 23.505600
N 5.079500 10.565900 22.790700
N 4.521530 11.334700 22.988500
N 2.629660 12.879800 23.611300
N 3.369340 12.379200 23.269000
N 0.744856 13.446800 22.864500
N 2.146150 13.668300 23.339600
N 1.608890 13.608300 22.587100
N 5.104510 22.010300 21.598000
N 4.344720 22.440700 21.041900
N 1.338530 22.089800 22.540700
N 1.523760 22.342000 23.479900
N 3.363530 22.027900 23.689500
N 2.419780 21.890400 22.683200
N 4.847510 21.769100 23.886100
N 5.930110 21.751000 23.906500
N 0.764602 22.206000 25.934600
N 1.578620 22.390100 25.490500
N 4.018030 21.500900 24.630100
N 3.566870 21.719700 25.554300
N 4.147190 22.306900 25.134600
N 4.876720 22.440600 25.857400
N 4.437690 21.409500 25.697900
N 5.570020 21.700500 26.076800
N 5.153460 22.054400 25.014000
N 4.897650 21.163900 24.801300
N 5.862000 21.401900 25.085200
N 4.086130 22.151800 26.382300
N 3.416140 21.563900 27.167900
N 5.293240 21.986200 26.936600
N 4.258190 22.078500 27.342400
N 5.896130 22.370000 28.079300
N 5.008320 22.128200 28.077900
N 4.886440 23.321300 18.182100
N 4.512640 23.552100 19.109100
N 5.338460 23.335000 19.741800
N 5.514910 23.606100 18.851800
N 4.952930 22.898400 20.507800
N 4.673190 22.623100 22.165600
N 3.857880 24.574600 21.522400
N 3.434450 25.315700 22.148600
N 5.744140 24.919400 22.298800
N 5.307060 25.853200 21.863500
N 4.651470 25.255800 22.163800
N 4.077210 27.064000 22.057100
N 2.672420 26.231200 22.428400
N 4.167840 26.159500 21.827200
N 5.073120 26.867200 21.879400
N 4.743070 27.162900 21.027700
N 5.852910 27.662100 21.971600
N 4.915660 27.914200 21.829800
N 2.042010 23.547300 24.016300
N 0.985804 23.120400 23.764700
N 1.664130 23.183700 22.874400
N 0.752946 22.812300 22.740200
N 1.727160 24.285300 23.511600
N 0.668980 24.149600 23.711600
N 2.406230 23.729300 22.889800
N 2.679350 22.740700 23.228100
N 3.764130 22.831400 23.464000
N 2.961030 23.388900 23.884000
N 3.409360 23.551500 22.861800
N 3.809670 23.805600 23.685000
N 2.452230 22.493700 24.200800
N 4.357010 23.535200 22.853200
N 4.826510 22.678600 23.114600
N 4.666770 23.280100 23.819700
N 5.736070 23.385200 23.677000
N 5.393470 23.389200 22.727500
N 4.673030 24.282000 23.395900
N 5.012690 24.251500 22.542500
N 5.438200 22.525500 24.074500
N 5.857340 22.574600 23.173300
N 4.335740 22.497900 24.163100
N 2.108150 25.310800 23.680800
N 1.310200 26.097300 24.188300
N 2.980660 24.601000 22.546300
N 2.655880 24.433700 23.516800
N 3.541190 24.692200 23.328500
N 2.894910 25.484300 23.160400
N 3.940450 25.582100 22.921100
N 2.431480 25.992100 24.283700
N 4.004560 24.499400 22.503800
N 5.010420 25.152400 22.975400
N 5.727960 25.900300 22.768300
N 1.992640 26.975800 23.942400
N 3.080140 27.338000 22.505100
N 3.598280 26.427500 22.693900
N 2.520920 26.387800 23.361000
N 2.475680 27.620600 23.423000
N 3.291360 27.151200 23.398500
N 4.131670 27.603900 22.870800
N 3.878990 27.818600 23.964300
N 4.778280 27.367400 24.256400
N 5.146860 27.581400 22.712300
N 4.763970 26.247100 22.600900
N 5.653370 27.851000 23.969500
N 6.037330 26.796800 22.479600
N 1.047520 23.254000 25.858700
N 1.924510 23.488000 25.144100
N 1.265440 24.240100 24.394900
N 1.132790 24.184500 25.509400
N 1.551760 22.711100 24.435500
N 0.744084 23.250000 24.761300
N 2.578850 22.537900 25.366000
N 2.483890 23.457000 25.914300
N 3.370790 22.541200 24.483300
N 3.495330 22.867800 25.570300
N 2.838170 23.357100 24.963900
N 3.270870 23.881900 25.716700
N 4.293330 23.186800 25.958100
N 5.587240 24.263100 25.405400
N 4.672220 23.983700 25.612700
N 5.816410 22.506100 25.602400
N 2.150510 24.585300 24.452200
N 2.296210 24.472400 25.520300
N 1.483450 25.188200 24.741500
N 2.246940 25.551300 25.243100
N 1.085160 26.067900 25.712800
N 3.899020 24.481200 25.410800
N 3.035160 25.040800 25.272900
N 3.883120 25.360100 25.079600
N 3.218540 26.057900 24.817800
N 4.796730 24.848100 25.282700
N 5.686000 25.171500 25.122400
N 4.956080 25.699200 24.889800
N 5.861290 26.070700 24.730900
N 1.770400 26.596000 24.812800
N 1.932510 26.201200 26.103500
N 2.208080 27.612400 24.823500
N 0.637336 27.029600 24.571200
N 3.688930 27.766800 26.028400
N 3.554750 27.871900 24.980300
N 2.885280 27.041300 24.506600
N 2.797240 27.529400 25.546100
N 3.813330 27.054000 24.501200
N 2.536150 26.553800 25.398400
N 4.169520 26.223600 24.814700
N 6.040460 27.097500 24.369300
N 5.073880 26.561800 24.610900
N 2.042890 23.648200 27.246200
N 1.970470 24.273300 26.366400
N 2.729310 23.861700 27.894500
N 3.202190 22.791900 27.209400
N 3.363630 23.265500 26.408900
N 3.517530 23.657400 27.463700
N 2.816240 24.012300 26.757600
N 4.253900 22.937900 26.910700
N 5.567030 22.828200 26.515900
N 5.077000 22.781600 27.444700
N 4.498700 23.641400 27.696900
N 5.591700 23.688900 27.602700
N 1.426100 25.261000 26.129700
N 2.376070 25.293100 26.203800
N 1.834120 25.368200 27.104400
N 2.642310 25.657300 27.857500
N 3.715310 25.632200 27.895600
N 2.499650 24.737000 27.321800
N 3.471930 24.723200 27.378400
N 4.046720 25.525400 27.040400
N 3.031770 25.650800 27.004700
N 5.024690 25.447600 27.054200
N 4.691380 24.544700 27.369300
N 5.694310 24.658500 27.345400
N 5.809500 25.887200 26.842400
N 2.001360 27.234900 26.218000
N 2.287590 26.274100 27.044400
N 1.357060 26.487600 26.809400
N 3.175360 26.577400 27.416700
N 2.633890 27.326300 27.132600
N 3.623370 27.387600 27.035200
N 3.789840 26.427400 26.698200
N 2.866250 26.774700 26.368100
N 4.700880 27.191200 27.313300
N 4.419000 27.111500 26.414200
N 4.850960 26.311000 26.744600
N 5.839750 26.980000 27.346300
N 5.252820 26.306900 27.610000
N 5.420360 27.277500 26.355600
N 4.232720 26.369400 27.576000
N 4.114550 22.847000 28.112000
N 4.539000 22.518200 28.927400
N 4.380190 23.685500 28.652600
N 5.189470 23.224300 28.374200
N 5.054200 23.084000 29.514400
N 5.319040 24.083300 29.151100
N 2.253780 25.511900 28.980400
N 3.234060 24.609700 29.450000
N 3.132970 24.619900 28.321300
N 3.191490 25.534300 28.864700
N 2.690910 26.006800 29.594300
N 4.109720 24.504900 28.169800
N 4.515990 24.360300 29.456800
N 4.268650 25.337400 28.962700
N 5.239310 25.111100 29.077400
N 5.103190 24.561800 28.244700
N 4.725060 25.778400 29.694200
N 5.200240 26.024000 28.818500
N 5.713020 25.385600 28.040600
N 1.730530 27.084300 28.397300
N 1.619040 26.217900 29.485500
N 2.168380 26.904300 29.217100
N 0.952296 26.969400 29.541000
N 0.853289 27.899500 29.388300
N 1.912590 27.915400 28.954500
N 3.176290 27.019300 29.148400
N 3.706890 26.181100 29.481200
N 2.829950 26.401600 28.441400
N 3.646570 27.074500 28.201100
N 4.136470 26.186700 28.630500
N 2.645530 27.420300 28.311000
N 3.411160 27.843800 28.784700
N 5.723780 26.856100 28.495300
N 4.725850 26.998000 28.268700
N 5.145700 26.826200 29.296700
N 4.956470 27.686300 28.919500
N 4.238200 27.823500 28.170400
N 5.387190 27.759300 28.074200
N 6.045970 26.444000 29.500600
N 3.358230 24.082100 30.817400
N 5.722470 23.231500 30.211100
N 5.050300 23.936100 30.226900
N 5.479540 23.941700 31.241700
N 5.553750 23.010200 31.439500
N 4.435510 24.007600 31.224800
N 1.765060 25.373800 29.956900
N 2.207770 26.026100 30.525700
N 2.759000 25.181900 30.081700
N 3.358980 25.049400 30.874700
N 3.743870 25.246900 29.936800
N 2.453610 25.439500 31.222700
N 4.053360 24.460700 30.344000
N 4.073200 24.821600 31.524500
N 3.602510 25.810000 31.589900
N 5.735330 25.531200 29.793500
N 4.930080 24.900000 30.142000
N 5.007020 24.746400 31.037600
N 5.979220 25.703700 31.592500
N 5.971050 24.352600 30.234500
N 0.994977 27.232500 30.857300
N 1.661560 27.114600 30.130300
N 1.749010 26.768600 31.130200
N 2.120860 27.729200 30.735200
N 2.705530 26.736900 31.209900
N 3.725710 26.845300 31.281900
N 3.117380 27.669200 30.959300
N 4.671910 26.483200 31.423700
N 5.619960 26.825400 31.361200
N 4.831130 27.497900 31.045300
N 6.025740 27.691300 31.059900
N 2.972170 25.152100 31.924300
N 4.215500 25.460500 32.440500
N 5.552530 25.599800 32.792500
N 4.892600 25.608500 31.743600
N 5.149720 24.776300 32.157500
N 5.985750 24.699000 31.723000
N 1.842430 27.623700 31.615300
N 2.393420 26.296700 31.968600
N 3.248780 26.628400 32.128600
N 3.976160 27.393900 32.008300
N 2.751470 27.565100 31.862600
N 4.950870 27.259900 31.988600
N 5.444530 26.362200 32.212500
N 4.264240 26.382100 32.236400
N 5.654330 31.549500 18.068900
N 4.401190 30.318500 18.612900
N 5.259400 30.717300 18.366300
N 4.955990 28.010100 20.581400
N 5.034160 29.394000 20.062600
N 4.924760 28.487000 19.742500
N 4.697880 29.483900 19.165900
N 3.689710 33.188700 20.249700
N 3.464190 33.040300 19.355700
N 5.879860 33.374100 20.484800
N 3.985010 31.548400 22.097700
N 4.162910 30.763800 21.582100
N 5.009420 30.345500 21.945600
N 2.391720 28.925400 23.038400
N 3.219320 28.531800 23.338100
N 4.113040 28.751300 23.385600
N 2.664200 28.205300 22.494800
N 4.085860 29.538800 23.983700
N 2.970180 28.025700 24.243500
N 4.583890 29.575800 22.791400
N 4.623030 28.465600 22.536600
N 5.722250 28.406400 22.803400
N 5.620950 28.967900 23.541500
N 4.835450 28.022600 23.569500
N 3.650630 31.441400 24.206900
N 4.844690 29.886300 23.646300
N 4.471150 31.052300 22.717100
N 4.266410 30.879200 23.676700
N 5.501510 29.956700 22.735500
N 2.076260 28.080800 25.798500
N 3.700750 28.688200 24.485200
N 3.818000 29.311300 25.147700
N 3.126150 29.578700 26.032100
N 4.750460 29.621700 25.829900
N 5.661570 29.526500 25.597800
N 4.344320 28.540500 25.285300
N 5.077110 28.206900 24.616400
N 4.955580 28.058300 26.003800
N 5.542990 28.502500 25.398600
N 4.845350 29.247200 24.789300
N 4.278160 31.492100 24.923100
N 5.492360 29.940700 24.713200
N 3.850560 32.544100 25.704600
N 3.453610 31.718300 25.381900
N 2.496100 29.357400 27.897400
N 2.478840 28.502000 27.555200
N 3.480540 28.251300 27.554400
N 2.930950 29.073800 26.823600
N 3.562980 29.451900 27.700100
N 2.949680 28.189900 26.450600
N 5.815630 29.768800 27.781300
N 4.606210 29.443100 27.393000
N 4.410750 28.004500 26.759200
N 5.933070 28.649900 27.486900
N 4.798320 28.490300 27.613000
N 5.422840 27.948600 27.060600
N 1.241670 30.794500 27.641100
N 1.726660 29.969700 27.767400
N 3.955130 30.302000 27.519000
N 3.987190 29.838600 26.391600
N 0.921396 31.631800 27.433100
N 2.118380 28.779000 29.499700
N 1.158750 28.863200 29.224200
N 1.755620 29.099800 28.483300
N 1.600840 28.098700 28.118000
N 2.514500 28.446300 28.522100
N 2.617440 29.393200 28.806400
N 3.615730 28.785600 28.364900
N 4.671320 28.567100 28.580700
N 5.569160 29.022000 28.325900
N 4.632590 29.597200 28.321600
N 5.920240 28.138300 28.850500
N 1.775780 30.074700 28.718300
N 2.122940 30.914700 28.266000
N 2.991840 30.490000 28.005100
N 3.555150 30.016400 28.555800
N 3.516570 30.899800 28.908700
N 2.807420 30.161200 29.461500
N 4.196260 30.897700 28.261900
N 2.768380 31.045700 29.753000
N 4.500940 30.348400 28.985700
N 4.605830 31.148700 29.478300
N 5.563510 30.649300 29.238400
N 6.044030 29.840100 28.795100
N 5.080430 30.368000 28.057100
N 1.574080 28.141300 29.980000
N 0.848005 28.703400 30.277300
N 1.876190 29.753100 30.830800
N 1.868000 29.651400 29.844400
N 2.264630 28.769000 30.473100
N 1.267330 29.389500 31.454600
N 1.419530 28.542300 31.075200
N 4.059060 28.026700 30.790700
N 2.637950 28.497200 31.293100
N 3.250720 28.559300 30.486300
N 3.152520 29.324600 31.061000
N 4.139690 29.007300 31.280700
N 4.105740 29.114600 30.320700
N 3.288320 29.615500 30.058600
N 3.565340 28.311100 31.562200
N 6.040820 28.615400 30.616400
N 5.403070 29.143000 31.324800
N 5.207130 29.202500 30.330200
N 3.895490 30.771700 30.111700
N 3.104360 30.416200 30.598900
N 4.105870 29.871400 30.926100
N 5.689610 29.973900 29.918700
N 6.009980 31.507000 29.894400
N 4.547550 29.999100 29.988200
N 5.039650 30.800600 30.227900
N 5.100840 29.987100 30.912800
N 6.046770 30.614700 30.579300
N 1.544570 33.136500 29.954500
N 1.486410 32.221900 30.274600
N 2.321750 31.810700 30.022700
N 4.707960 28.187400 31.694800
N 5.670450 28.190600 31.797800
N 3.314470 30.066100 31.612400
N 3.937340 30.558300 32.121000
N 4.518300 31.315200 32.077600
N 5.980670 30.923700 32.317900
N 5.372660 31.711700 32.198000
N 6.364800 3.972100 3.718770
N 11.312400 2.436730 2.790650
N 11.346600 2.537470 3.973460
N 10.736200 3.557540 3.143940
N 11.210500 3.585750 3.994010
N 9.789860 3.597510 3.673800
N 7.065180 5.690630 3.760650
N 6.541820 5.895760 2.831380
N 10.154900 5.474000 3.816650
N 11.133200 5.138680 3.556660
N 10.379100 4.387820 3.571480
N 7.757950 1.832200 6.000660
N 9.012810 2.281020 5.811990
N 10.945700 0.856388 5.620430
N 11.404100 1.747040 5.897000
N 10.525000 1.682120 5.375430
N 11.049500 1.227410 4.657160
N 7.673280 2.610700 5.415930
N 6.631620 2.989440 5.947350
N 7.325430 3.537320 5.453940
N 6.537950 3.493790 4.520370
N 8.497820 3.346030 5.881310
N 9.444610 3.367310 5.998360
N 11.267600 3.407660 5.946430
N 9.938020 2.458890 5.507460
N 10.946500 2.523510 5.637090
N 10.474400 2.855600 4.558710
N 10.306700 3.405440 5.362070
N 10.178800 3.985890 4.494780
N 11.064900 3.787160 5.036180
N 11.413200 2.880340 4.873740
N 6.927350 4.358610 4.648540
N 7.075360 4.717610 5.561680
N 9.350740 4.347320 5.263720
N 9.004230 5.366410 5.218540
N 7.976990 5.625310 5.579360
N 8.848290 4.247680 6.044710
N 10.634700 5.719630 4.556170
N 10.635300 4.738460 5.386140
N 9.769440 5.228980 4.711910
N 11.004600 4.649180 4.450260
N 11.333500 5.515950 5.446810
N 10.451900 5.920930 5.443690
N 9.909770 4.328810 6.051810
N 7.872380 2.148840 6.899910
N 7.131930 1.725120 7.302220
N 6.633970 2.347270 6.906720
N 8.780330 1.619520 6.661180
N 9.175500 1.950620 7.455180
N 8.843090 0.850668 7.200180
N 8.258820 1.538610 7.599220
N 9.739230 1.369080 6.956170
N 9.721660 2.386540 6.702530
N 11.318000 1.300380 6.734740
N 10.534000 1.872140 6.336520
N 10.733400 1.884980 7.306110
N 10.521200 0.904750 7.170200
N 7.600670 2.958410 6.308510
N 6.706110 3.551880 6.756220
N 7.247260 4.154620 7.299370
N 7.338210 2.871240 7.397020
N 6.455230 3.218090 7.565660
N 7.681920 3.985110 6.219510
N 8.707830 2.750470 6.557090
N 9.211850 3.741850 6.876740
N 9.439160 2.955810 7.447650
N 11.324200 2.484180 6.622810
N 10.346200 3.003940 6.276230
N 11.066200 3.289910 6.973140
N 10.224000 3.789540 6.792170
N 10.353400 2.752210 7.478760
N 9.950180 4.164630 7.624720
N 11.241400 2.659750 7.809520
N 6.583340 5.420950 6.310250
N 6.706270 5.461870 7.362150
N 6.657050 4.612360 6.757380
N 7.651610 5.342020 7.379500
N 7.501590 5.048610 6.386060
N 9.465670 4.653960 6.820770
N 9.676580 5.809200 6.840900
N 8.677930 5.270360 6.179880
N 7.999110 5.903700 6.648380
N 10.920500 4.302520 7.484060
N 10.918000 4.243930 6.266270
N 10.446700 4.925800 6.745480
N 10.031500 5.172930 7.588870
N 11.452500 5.026470 6.300450
N 10.815100 5.930290 6.340190
N 9.770880 5.280530 6.093910
N 7.376350 1.221280 8.376620
N 7.778620 2.148270 8.350920
N 7.537260 1.649000 9.376000
N 8.291940 1.279200 8.607510
N 8.343150 2.180210 9.498330
N 10.307000 0.687221 8.236610
N 9.942920 1.484570 7.963880
N 11.204100 1.253340 8.045490
N 10.722600 1.879920 8.583180
N 11.185000 1.234920 9.279440
N 9.955950 2.391810 8.346300
N 10.152700 1.128300 9.488540
N 10.548400 1.968030 9.538060
N 6.101170 3.717140 9.300130
N 6.062030 3.122650 8.564280
N 7.706810 3.504560 8.134380
N 6.903750 3.903580 8.469760
N 6.997740 2.813160 8.444320
N 7.512300 3.641860 9.208420
N 7.408640 2.599630 9.392120
N 8.090140 2.913730 8.772310
N 8.394840 3.898940 8.905890
N 8.755270 3.155530 9.525760
N 11.525200 2.595960 8.994080
N 10.601000 2.827370 8.996650
N 11.196200 3.787360 8.324340
N 10.822600 3.770270 9.164220
N 7.378820 5.797590 8.383000
N 6.986880 4.256680 9.685370
N 7.792700 4.759760 8.942370
N 7.073980 4.830940 8.176510
N 7.933070 4.490840 8.015180
N 8.283940 5.465580 8.232540
N 8.744120 4.799270 8.964850
N 8.893140 5.841720 8.905630
N 8.168730 5.566170 9.459830
N 9.338200 5.234900 9.654640
N 11.454900 4.752730 8.317520
N 10.720700 5.423660 8.437740
N 11.192500 4.729400 9.183640
N 11.271400 6.043770 8.988080
N 7.077280 2.155470 11.200300
N 6.926770 1.852750 10.331600
N 7.845600 2.167680 10.322600
N 8.240950 1.891000 11.358700
N 9.382810 0.747947 10.319000
N 9.156220 2.108630 11.317300
N 9.644720 1.246030 11.029400
N 8.907360 1.384520 9.753760
N 9.880750 1.827310 10.269300
N 10.450700 1.062500 10.373000
N 6.526740 3.706550 10.730900
N 6.706010 3.200570 9.913760
N 7.396680 3.001010 10.763200
N 7.585500 3.992350 10.919400
N 9.133330 2.513650 10.381700
N 8.008100 3.250700 10.092300
N 8.990710 4.160320 9.740810
N 8.451520 2.855410 10.993600
N 9.381610 3.494790 10.441500
N 8.537420 3.865780 10.680200
N 9.182900 3.245720 11.336900
N 10.240700 3.762550 11.306300
N 11.520000 4.167500 10.025900
N 11.208300 2.980300 9.936590
N 6.831160 4.592960 10.641000
N 7.451750 5.165950 10.122100
N 8.802920 5.933470 10.051300
N 9.220400 5.323210 11.089000
N 8.742020 4.886980 10.375500
N 9.210750 4.289720 11.256200
N 8.078190 4.378820 9.893430
N 9.643890 4.488560 10.412400
N 10.152800 4.795910 11.188900
N 11.281200 5.697520 10.176300
N 10.838800 5.378900 10.919800
N 9.878470 5.579300 10.502000
N 11.115700 4.339580 10.968300
N 7.994750 2.672050 11.868700
N 8.874570 2.711900 12.252100
N 9.565660 2.935270 12.872200
N 9.658190 3.965750 12.070000
N 10.796800 4.203490 11.923300
N 11.449500 4.891060 11.657200
N 7.800450 3.538270 14.302000
N 7.680580 2.588470 14.643300
N 9.338160 2.549480 13.750200
N 8.538010 2.705500 14.273800
N 7.256650 4.357220 15.018300
N 7.647140 2.341310 16.962700
N 9.147110 2.062090 16.977000
N 10.324500 2.158870 16.704900
N 7.748290 3.591900 15.243000
N 6.921060 2.951980 16.768100
N 6.470690 3.846920 16.948300
N 9.078610 3.837960 16.739900
N 7.724170 5.756120 16.548700
N 6.527720 4.800490 16.908500
N 7.325430 4.945610 15.786400
N 6.806580 5.552410 16.281600
N 9.614350 5.688930 16.309900
N 8.613540 5.854280 16.277800
N 9.171430 4.818760 16.976500
N 10.106500 5.497790 15.341100
N 10.628600 6.022770 15.942800
N 7.270740 1.840670 18.449800
N 6.991870 1.788710 17.568400
N 7.872230 2.368960 17.860600
N 6.431590 2.279220 18.292100
N 6.301790 0.586623 18.821300
N 8.248540 1.570350 18.554000
N 8.977700 2.155340 17.922000
N 9.024460 1.137550 17.680000
N 9.159340 1.316140 18.638700
N 8.301360 0.621992 18.280200
N 7.899790 1.497540 17.518400
N 10.138000 1.362500 17.181700
N 9.990270 1.825000 18.085300
N 10.641300 2.396530 17.603300
N 10.958700 1.540470 18.033700
N 10.485000 1.008530 18.696200
N 7.585690 4.136230 18.215700
N 7.328050 3.351500 17.551200
N 6.437100 3.530070 18.003000
N 8.631230 4.178530 17.612100
N 8.846090 4.107930 18.520900
N 9.625810 4.119560 17.694200
N 8.713130 2.998790 17.147500
N 10.048900 3.871890 18.551000
N 11.439800 2.630890 18.258700
N 10.437600 3.459640 17.589800
N 11.258000 3.624600 18.073000
N 9.724800 2.848450 17.018700
N 6.813500 4.245060 18.760100
N 7.194720 5.215930 18.387300
N 6.904990 5.545150 17.598900
N 6.835630 4.438910 17.732600
N 7.892030 5.787600 18.702400
N 8.436130 5.041170 18.354200
N 9.628790 5.160790 17.955800
N 8.797910 5.910750 18.204500
N 8.124430 4.977030 17.386800
N 9.113180 5.817870 17.102700
N 8.171440 5.973670 17.393200
N 10.781600 6.004500 18.151000
N 9.752910 5.811070 18.690600
N 10.298400 5.476850 17.265600
N 10.724400 4.925610 18.478800
N 11.191900 5.148960 17.436000
N 10.564800 4.459240 17.699800
N 7.429650 1.114040 19.267600
N 7.572880 2.347000 20.434100
N 6.205040 1.500180 19.070100
N 8.539210 0.813516 19.208300
N 8.859460 2.128740 20.585000
N 9.781490 0.611614 19.401100
N 6.468080 3.370780 19.179200
N 7.518220 3.238010 19.707800
N 6.777460 2.847510 20.262200
N 7.151290 4.120340 19.650800
N 8.187640 3.712520 19.146900
N 7.977440 3.945550 20.225000
N 9.410360 3.385890 19.126800
N 8.436290 2.889320 19.888400
N 9.532720 2.527650 20.005800
N 9.047680 3.188940 20.574700
N 8.854110 3.918230 19.833100
N 10.895200 4.121030 19.025300
N 9.923250 3.367090 19.959500
N 10.851600 3.180670 19.278400
N 10.575600 2.433620 20.088000
N 10.890200 3.718670 20.047700
N 11.389400 2.922850 20.535100
N 6.105540 5.940550 19.138200
N 7.379990 5.136800 19.309700
N 7.233820 5.707670 20.401500
N 8.180810 4.639890 19.297300
N 9.229300 4.750900 19.151300
N 8.061930 5.916010 19.678000
N 8.897630 5.604810 19.230900
N 9.897940 5.500500 19.662300
N 6.888870 1.880730 21.066700
N 6.866220 1.835960 22.034100
N 7.675390 2.348950 21.789700
N 6.158790 1.150530 21.564100
N 8.015420 1.725250 21.091500
N 8.261060 1.039040 21.964900
N 9.060470 1.949130 22.073700
N 9.018230 1.291360 21.364800
N 9.927790 1.832900 20.745900
N 10.878400 2.010710 20.914100
N 9.724700 1.111010 22.325800
N 10.048900 0.704280 21.560800
N 10.859700 1.069490 21.157700
N 10.024200 1.958960 21.678200
N 6.524340 2.754730 21.139900
N 7.942240 3.054940 20.962600
N 8.661410 2.714650 21.466600
N 9.845890 2.813440 21.005900
N 11.185600 4.889620 22.233000
N 10.781900 5.421730 21.513400
N 7.198870 0.859489 22.487900
N 6.165690 1.201700 22.743900
N 11.122200 4.456220 23.102300
N 6.614070 5.818200 24.609700
N 6.462840 4.978400 25.466500
N 6.073120 5.848940 25.407900
N 6.646960 1.855150 31.112200
N 6.558140 2.352680 31.944600
N 6.500430 6.745590 3.383630
N 7.438800 6.539890 3.499690
N 6.639620 6.272080 4.357880
N 6.930400 7.151140 4.622330
N 6.545360 7.430960 5.525380
N 8.695170 6.302620 5.609700
N 9.902950 7.550900 5.974150
N 6.285690 8.278960 5.907090
N 10.496400 8.226560 6.006050
N 7.236580 6.214240 7.396860
N 8.051140 6.811400 6.727530
N 8.946280 6.894780 7.370110
N 9.145450 7.317800 6.576040
N 8.853090 6.337880 6.570520
N 8.367140 7.622370 7.431600
N 8.118810 6.411630 7.780700
N 10.022100 6.855390 6.955710
N 10.967000 6.699320 7.217420
N 11.014100 7.678640 6.591920
N 10.388000 6.119770 7.642290
N 7.011510 6.678540 8.530780
N 6.923530 7.608990 8.533680
N 6.213600 7.335670 9.135110
N 7.942740 7.198360 8.332190
N 8.872170 7.804170 8.293010
N 9.028790 6.886440 8.477440
N 8.869220 7.136080 9.407790
N 8.138940 6.414030 8.897210
N 11.449800 7.662600 9.683290
N 9.836990 6.982150 7.924760
N 9.935220 7.225790 8.930360
N 10.814800 6.811490 8.230540
N 11.165800 7.438680 8.790470
N 10.551100 6.715510 9.395090
N 10.023300 7.895170 8.193500
N 10.436700 8.309670 9.060850
N 11.193900 8.698480 9.427590
N 10.948300 9.595590 8.982410
N 9.584700 6.441730 9.775470
N 9.432000 6.538190 10.747300
N 9.555900 7.366850 10.053300
N 11.385300 6.769750 11.239600
N 10.515300 7.658490 9.800060
N 10.481300 6.319560 10.696100
N 11.086400 6.949170 10.301400
N 9.882730 6.054730 11.437100
N 9.037390 8.253860 10.823300
N 10.052700 8.533050 11.341900
N 10.715500 8.156780 10.743600
N 10.423600 9.370500 9.770030
N 9.856070 8.327690 10.313700
N 10.773300 9.151320 10.686300
N 10.612600 10.137000 10.764500
N 11.307700 9.991260 10.085300
N 9.522220 7.167500 12.258100
N 10.712600 7.588230 12.608200
N 11.315200 6.778220 12.298000
N 10.705000 7.712270 11.667200
N 10.288800 6.763640 11.898700
N 10.670100 9.503950 11.637900
N 9.830100 8.093530 12.270500
N 10.084400 9.003130 12.900300
N 10.681300 8.563900 12.198600
N 11.008400 9.524110 12.674600
N 11.008700 8.431510 13.195400
N 10.101800 8.111570 13.297500
N 9.750080 9.243320 11.893100
N 10.269800 10.025300 12.299600
N 9.351240 7.873820 13.989200
N 11.009100 6.971670 13.594700
N 10.955300 7.823090 14.090500
N 10.970400 6.942110 14.727700
N 10.190000 6.403120 15.017700
N 10.550000 8.936640 14.965100
N 10.076100 8.402470 14.319500
N 11.277700 9.457700 14.604700
N 10.950400 9.184120 13.733400
N 6.530350 6.252470 16.861600
N 7.078600 7.481590 16.999500
N 7.298380 6.819860 16.290600
N 8.240320 6.758810 15.750800
N 9.329050 6.271300 15.588900
N 8.242630 6.626010 16.664100
N 9.009120 7.586840 16.711500
N 9.272010 6.646580 16.487500
N 8.784160 7.557030 15.792800
N 7.934180 7.682910 16.384700
N 9.826100 7.098510 15.887300
N 10.212800 6.333980 16.762900
N 10.603800 7.144970 16.604500
N 10.715000 7.064790 15.671600
N 11.279300 6.205490 16.786100
N 7.690010 9.298540 16.920000
N 7.444190 8.981190 16.033200
N 7.259720 8.096500 15.861000
N 8.550030 8.425780 16.729000
N 9.336770 8.435630 16.179300
N 9.994410 9.060990 16.701400
N 10.073900 7.967310 16.562600
N 10.283300 8.062260 15.605100
N 11.046000 8.103900 16.603300
N 10.765300 8.798530 15.954700
N 11.482500 7.996230 15.727700
N 10.752800 9.845490 16.996000
N 7.026980 7.260400 18.024500
N 7.085220 6.278440 18.219300
N 6.211650 7.034200 17.566100
N 7.745600 7.848540 18.084200
N 6.420920 6.851720 18.748900
N 7.347910 6.577760 17.239900
N 6.179100 6.152240 18.033800
N 9.339070 6.636700 18.570900
N 7.989790 7.361280 17.244600
N 9.751580 6.140710 17.790300
N 10.312000 6.930780 18.272000
N 10.875200 7.590580 18.712500
N 11.281800 6.721160 18.591900
N 10.893600 6.797650 17.473300
N 6.691470 8.806210 18.684300
N 7.547970 8.892590 18.117300
N 6.644660 8.111400 17.854900
N 7.614480 8.338070 17.215800
N 8.172530 9.625060 18.585400
N 8.357610 8.979360 17.622300
N 8.622780 8.028990 17.619800
N 9.530680 8.262260 17.239500
N 9.180520 9.161210 17.120200
N 9.925540 9.483550 18.589100
N 10.104500 8.966680 17.680800
N 10.870000 8.867480 17.167200
N 7.052150 11.409700 18.305800
N 8.095130 10.840500 18.483800
N 9.133380 9.731880 17.993400
N 8.720510 10.757200 17.720200
N 8.864800 10.341100 18.776500
N 9.144780 11.357900 18.347600
N 9.844350 10.383700 18.285100
N 9.839140 9.886740 17.369900
N 10.699800 9.724170 18.071300
N 10.755600 10.939000 18.450300
N 10.888700 10.538300 17.585900
N 11.444000 9.997910 18.541700
N 6.498220 7.092390 19.694500
N 7.287460 6.573260 19.976200
N 6.673580 7.756910 18.945500
N 7.037560 6.075400 19.205700
N 6.130530 6.367260 20.208400
N 8.836930 6.249260 20.070900
N 7.980590 6.196820 20.621900
N 8.183530 6.931510 19.920700
N 8.519680 6.515640 19.129400
N 8.728740 7.660100 20.407600
N 9.106660 7.150570 19.609200
N 9.699650 6.388250 19.548500
N 9.986760 7.378900 19.142400
N 9.717730 6.965890 20.318900
N 10.563600 6.362500 19.027200
N 10.530200 7.641930 20.392000
N 10.732800 7.095780 19.666500
N 9.713890 7.849940 19.920600
N 11.444500 7.821850 20.005000
N 7.499980 8.258950 18.893800
N 6.421600 8.120780 20.038000
N 7.290380 9.530710 19.069200
N 7.145030 8.718660 19.656900
N 7.678580 9.438020 20.048000
N 6.248140 9.043700 19.525100
N 8.028020 8.946590 19.324000
N 8.686000 9.640130 19.774700
N 10.287700 8.595000 20.491200
N 10.675700 8.214850 19.530800
N 11.219400 8.820790 20.061400
N 6.809410 9.839190 19.869300
N 7.479210 10.406600 20.311100
N 7.994420 10.254500 19.279800
N 8.220710 11.086700 20.592600
N 8.413980 10.137200 20.574600
N 9.663300 10.830600 19.099100
N 8.766720 10.611000 19.815700
N 9.520210 9.884470 19.337500
N 9.412800 11.293700 20.025200
N 10.239600 11.156500 20.633900
N 9.877300 10.437100 20.077500
N 10.477700 10.237800 19.049900
N 10.577600 11.093100 19.458800
N 10.883100 10.365000 20.378800
N 11.327200 10.115700 19.567600
N 11.250600 11.211400 20.192700
N 7.852650 7.297260 20.797200
N 6.962730 7.813420 20.838400
N 6.703470 6.773820 20.745900
N 6.675440 6.177990 21.655600
N 6.850130 7.061370 22.348500
N 7.567840 6.623970 21.487200
N 7.588560 7.776860 21.570800
N 6.425180 7.464080 21.557200
N 8.741570 6.749420 20.886600