ITEM: TIMESTEP
0
ITEM: NUMBER OF ATOMS
900
ITEM: BOX BOUNDS pp pp pp
5.9153331474142945e-01 3.3408466685257878e+01
5.9153331474142945e-01 3.3408466685257878e+01
5.9153331474142945e-01 3.3408466685257878e+01
ITEM: ATOMS id mol type x y z 
23214 0 3 3.5777 1.93824 1.57118 
24215 0 3 2.14794 2.4454 4.66131 
19625 0 3 2.56563 2.58435 5.69945 
17056 0 3 5.08688 3.79756 5.54945 
8280 0 3 2.7649 5.93734 5.11803 
11288 0 3 1.57266 2.56499 7.33623 
1200 0 3 3.34729 4.63545 7.38099 
9717 0 3 5.61956 1.82837 8.06362 
3920 0 3 2.43611 3.70337 9.6066 
9593 0 3 4.52708 2.5409 8.68745 
11547 0 3 1.41392 4.86266 9.12371 
5414 0 3 3.57937 3.51291 11.3375 
8719 0 3 3.71237 4.72694 23.1898 
21102 0 3 1.19341 4.21129 24.8285 
14074 0 3 3.72642 5.43958 25.5599 
18248 0 3 2.86956 1.87413 27.6138 
12367 0 3 3.86567 1.36583 28.1694 
17899 0 3 4.09502 3.1755 30.8266 
4871 0 3 5.88955 3.69599 30.1521 
23575 0 3 1.67573 4.50298 31.1939 
18104 0 3 0.670999 1.6738 31.7251 
19558 0 3 0.635544 2.51874 32.6254 
18019 0 3 3.28075 2.65187 32.6819 
19075 0 3 5.16868 6.96764 3.8124 
8646 0 3 3.40564 6.32581 5.88382 
2528 0 3 5.9018 7.83585 7.73146 
17975 0 3 4.2907 6.23352 7.22832 
14624 0 3 3.85628 6.78471 8.93927 
16672 0 3 2.93762 7.12781 8.28771 
11545 0 3 1.48993 11.0621 9.45268 
8000 0 3 2.97804 9.89742 9.22624 
5337 0 3 4.02493 6.84368 11.294 
3812 0 3 3.69505 10.1516 10.9403 
5075 0 3 2.71489 10.7105 11.299 
3583 0 3 5.57727 11.1804 13.2196 
26081 0 3 2.62168 6.7861 15.0363 
25283 0 3 3.7764 7.2134 16.5759 
7808 0 3 1.31307 8.58827 15.7921 
11588 0 3 2.02424 8.0697 17.7662 
19322 0 3 3.5927 6.29101 19.2191 
3026 0 3 1.57024 7.88546 18.9831 
22103 0 3 1.68531 9.26477 20.7517 
13244 0 3 1.76749 7.18778 23.1198 
1502 0 3 2.95802 6.16512 22.6199 
6723 0 3 4.49819 6.16572 23.6473 
10214 0 3 5.27152 10.0946 23.1715 
7719 0 3 5.05168 11.1247 22.71 
22752 0 3 2.59805 9.92279 24.3715 
14206 0 3 1.78076 6.96505 26.3714 
19050 0 3 1.25101 8.7279 29.5721 
14039 0 3 1.81506 10.3806 28.5829 
19148 0 3 1.52205 7.8368 30.1186 
19382 0 3 2.60293 8.03821 30.61 
4215 0 3 1.73751 13.2325 0.775786 
20187 0 3 5.56087 15.1706 1.44076 
14047 0 3 2.29199 13.0227 5.78903 
3032 0 3 5.61798 14.3799 5.74058 
6383 0 3 3.14542 14.1894 7.44787 
11244 0 3 3.20062 12.947 9.4234 
26985 0 3 1.50072 14.6061 8.28544 
406 0 3 2.47533 13.9412 8.71166 
19173 0 3 4.19285 14.4103 9.18323 
10112 0 3 2.53 12.5933 10.2357 
20741 0 3 5.80079 13.8868 15.2643 
26338 0 3 2.21052 12.1476 18.5002 
10143 0 3 1.11381 11.8573 18.3311 
21765 0 3 3.73866 16.3972 17.8058 
22963 0 3 5.56178 16.3648 18.5388 
11757 0 3 1.53847 16.3983 20.1269 
666 0 3 2.01822 12.0427 21.3626 
24904 0 3 2.05111 16.3349 22.4355 
26743 0 3 1.20753 11.8505 22.7654 
7309 0 3 5.79307 14.0542 23.4608 
7974 0 3 3.59366 16.7039 24.1672 
7720 0 3 5.85837 14.7335 25.6717 
26840 0 3 4.83108 14.738 26.1458 
23481 0 3 4.43281 16.0008 27.8814 
9596 0 3 1.93385 13.0439 29.9855 
23734 0 3 1.50153 13.0424 31.4405 
14931 0 3 4.99751 16.4822 30.1166 
21121 0 3 3.56781 12.8848 32.4579 
4334 0 3 1.61278 18.4903 8.89373 
2897 0 3 0.797684 20.0958 8.99824 
659 0 3 3.42752 20.5636 8.56642 
5783 0 3 3.68215 22.3608 8.51153 
20389 0 3 1.85308 18.9259 12.1997 
6293 0 3 1.47669 21.4273 12.859 
22469 0 3 5.91823 17.0497 14.8229 
14326 0 3 2.55956 21.95 13.7265 
26211 0 3 1.2738 19.2811 15.8612 
141 0 3 2.44311 18.9029 15.4088 
4248 0 3 1.41333 20.0218 18.1286 
15317 0 3 5.66869 19.5282 17.6027 
3621 0 3 3.53005 19.6382 18.8959 
8316 0 3 3.478 21.7383 20.3134 
20499 0 3 5.711 21.8946 18.8551 
1812 0 3 2.04663 22.0694 22.1622 
9413 0 3 3.91291 18.245 23.2375 
24610 0 3 1.51347 22.3283 23.4015 
15690 0 3 4.84969 17.9692 25.2263 
1723 0 3 4.43158 18.9937 25.2918 
11950 0 3 4.84933 22.2185 24.8106 
20930 0 3 5.85535 17.5868 27.3291 
1974 0 3 3.07894 18.9763 29.2775 
602 0 3 1.77373 17.0811 32.2311 
5197 0 3 3.29489 19.7076 32.2442 
26329 0 3 1.08644 25.8152 1.88046 
211 0 3 1.98639 23.8033 3.49352 
894 0 3 1.85141 23.9548 6.13493 
26938 0 3 4.80077 25.6235 7.10744 
8603 0 3 1.37505 23.1403 14.7503 
9597 0 3 2.33971 25.8538 14.5651 
12088 0 3 5.99844 27.4262 15.0301 
7008 0 3 1.57019 22.8091 16.7135 
11524 0 3 0.965166 27.1493 15.5774 
26447 0 3 2.74572 23.3794 19.1121 
4605 0 3 1.9733 24.8937 18.9833 
24053 0 3 1.03521 24.4374 18.8764 
21196 0 3 1.24134 26.4676 23.9641 
19032 0 3 2.83758 23.9465 25.3862 
15436 0 3 2.41268 25.0354 24.9163 
23362 0 3 2.88856 24.2367 26.6115 
2704 0 3 4.50536 23.7657 26.7357 
1118 0 3 1.4806 26.1929 27.7448 
11471 0 3 5.23819 32.0517 2.00864 
2215 0 3 2.11139 31.5427 3.43629 
24875 0 3 2.5681 28.128 5.06102 
5105 0 3 1.84589 32.524 5.49383 
11227 0 3 5.39719 32.758 5.97834 
4729 0 3 5.11478 31.2515 9.20603 
14066 0 3 3.19726 31.9004 9.97802 
18741 0 3 3.90871 31.1815 14.6967 
21667 0 3 3.06649 31.9724 14.9606 
13821 0 3 5.44915 30.2978 16.0318 
20192 0 3 1.11609 31.2098 21.3918 
6110 0 3 0.678859 27.9813 25.8649 
9938 0 3 0.873039 28.8643 28.0502 
22338 0 3 3.94551 31.5725 28.9972 
18427 0 3 9.33602 0.771156 0.723234 
4098 0 3 8.38026 1.57673 1.45536 
14475 0 3 6.45624 4.08955 1.06249 
8486 0 3 11.2336 3.22294 2.31622 
10600 0 3 7.83343 6.03811 2.08152 
12634 0 3 7.76201 0.745537 4.12155 
7971 0 3 9.57347 4.15479 3.5251 
17362 0 3 10.84 2.99243 5.3705 
17581 0 3 7.81644 5.08374 4.30289 
24606 0 3 7.86796 0.686624 7.38256 
13586 0 3 8.08983 1.69869 7.87781 
11580 0 3 10.9567 1.09264 6.98067 
12423 0 3 9.62602 2.46724 6.68236 
18031 0 3 10.8968 3.3637 7.5503 
1728 0 3 10.8343 3.84405 8.53107 
26497 0 3 6.64327 5.98032 8.71582 
13594 0 3 7.21437 5.98495 9.66143 
17540 0 3 7.9537 3.84282 10.2259 
18453 0 3 10.5043 2.77871 16.7822 
15274 0 3 9.44473 4.76896 18.221 
6779 0 3 6.34259 3.30293 26.5304 
9391 0 3 6.20477 5.7034 27.123 
18377 0 3 10.3052 1.5817 27.9796 
21938 0 3 9.82877 3.26843 29.021 
21728 0 3 10.8143 4.04527 30.3943 
14205 0 3 8.62432 4.63876 30.4988 
21584 0 3 6.64124 2.80359 32.7205 
3820 0 3 7.21246 5.53266 32.7596 
24286 0 3 10.6127 5.9566 32.3081 
20516 0 3 6.27761 7.86213 10.1033 
12935 0 3 9.73563 8.46102 12.2001 
2517 0 3 9.87446 7.3185 15.0115 
20309 0 3 8.50258 8.62032 15.3564 
24960 0 3 10.7685 6.73331 18.3808 
18841 0 3 9.6356 9.3793 17.072 
3912 0 3 9.77051 11.2888 17.0156 
11099 0 3 10.458 7.05349 19.6661 
25345 0 3 6.72521 6.37449 20.8012 
5009 0 3 9.31602 10.9491 23.3541 
26089 0 3 6.85039 6.46553 24.9451 
10969 0 3 7.99393 7.83019 24.7193 
9967 0 3 7.72521 6.98168 26.7909 
12677 0 3 8.85262 6.76038 27.1386 
26373 0 3 10.6363 7.79827 26.3448 
21766 0 3 8.18445 8.76346 26.9939 
16442 0 3 7.2288 10.245 27.5767 
726 0 3 11.0994 11.0683 27.3296 
15759 0 3 9.65269 8.74237 29.0352 
19730 0 3 9.70472 9.36194 28.1719 
1212 0 3 6.80385 6.17052 30.113 
1514 0 3 11.1924 7.70318 31.1475 
3471 0 3 8.62146 9.58364 30.8957 
3593 0 3 10.5254 10.9118 31.5257 
20258 0 3 7.93978 6.39955 31.5897 
4306 0 3 11.1149 13.2065 2.98533 
5790 0 3 10.2286 13.3953 3.46717 
11316 0 3 6.73536 16.8348 3.99944 
11130 0 3 9.0412 15.2741 2.56643 
4664 0 3 8.05947 15.16 4.96828 
7819 0 3 10.6992 14.2944 4.56592 
15173 0 3 7.97041 16.3355 4.60053 
20938 0 3 10.352 13.0202 6.23109 
14698 0 3 9.69361 12.8319 15.0594 
9676 0 3 9.44074 14.7307 13.7508 
4606 0 3 7.78774 12.0327 15.6709 
26383 0 3 10.8879 12.3803 17.9476 
19016 0 3 6.76079 13.1223 21.4645 
24150 0 3 7.50252 13.4639 20.7303 
16822 0 3 8.75612 13.5881 22.7828 
4274 0 3 9.29411 15.9072 23.1527 
12377 0 3 9.21375 12.9135 25.7109 
101 0 3 7.91242 13.0772 25.0442 
26335 0 3 10.0133 12.8955 24.8007 
24649 0 3 7.43919 16.0431 27.9077 
17282 0 3 9.21972 15.2346 26.7591 
17160 0 3 11.4709 15.3544 27.1468 
834 0 3 10.4294 14.1473 29.2804 
18430 0 3 8.06048 13.3572 29.9414 
18340 0 3 7.48902 15.5847 29.7802 
4373 0 3 10.8212 14.919 32.8188 
15183 0 3 7.95856 16.1879 32.9061 
9703 0 3 9.41479 20.0278 2.50622 
9272 0 3 7.52613 18.7119 5.03656 
2545 0 3 11.0723 21.8167 6.99883 
22788 0 3 10.4479 20.8349 7.56135 
4225 0 3 7.26033 19.2312 14.7031 
23322 0 3 10.8352 20.8558 17.3622 
19327 0 3 8.56912 17.9754 24.3795 
2662 0 3 10.6448 20.3914 25.5731 
18957 0 3 9.20861 22.376 24.3942 
17368 0 3 11.0962 20.8851 24.4578 
6541 0 3 6.98575 18.031 29.8882 
15794 0 3 7.07421 19.0221 30.0919 
16915 0 3 9.70285 21.8083 30.7379 
18454 0 3 8.82398 20.2919 31.9581 
26377 0 3 6.6779 20.7025 32.1162 
22598 0 3 10.322 25.8596 6.03983 
22300 0 3 9.08141 27.3445 6.21139 
19381 0 3 9.02022 27.6735 7.82823 
24983 0 3 9.04267 23.3517 11.7979 
10103 0 3 9.30049 25.303 12.6277 
8229 0 3 10.6786 24.3134 12.9499 
10325 0 3 10.5541 23.5093 15.0167 
12319 0 3 7.50309 22.4706 15.5888 
14208 0 3 9.4269 22.5419 15.9197 
21193 0 3 7.73689 23.4138 18.5242 
23521 0 3 7.8607 25.14 17.3732 
13281 0 3 9.28223 25.3148 17.8074 
5083 0 3 10.4596 26.8902 18.8063 
6514 0 3 10.5743 23.6301 21.6086 
11262 0 3 7.31527 25.876 20.8517 
8712 0 3 8.57767 26.2184 20.7212 
26608 0 3 8.40586 25.0867 23.9984 
10799 0 3 11.0295 24.8726 25.4653 
20210 0 3 7.77733 24.3063 26.6869 
22454 0 3 11.0622 25.261 29.4064 
2999 0 3 9.45887 27.6339 29.0169 
6372 0 3 9.14368 26.0476 32.029 
23166 0 3 7.86242 30.2991 1.53619 
17590 0 3 7.29875 32.4261 0.714606 
20345 0 3 9.02408 30.3804 3.51253 
20231 0 3 8.16505 31.4481 3.26905 
22796 0 3 7.08552 32.8769 2.87079 
7581 0 3 10.5684 31.6834 4.23557 
11267 0 3 8.51502 31.55 5.64828 
20602 0 3 9.39641 33.3234 4.7999 
7523 0 3 8.65219 31.6801 4.50444 
18660 0 3 8.65927 30.5886 7.029 
15010 0 3 10.0784 31.3107 6.35594 
25328 0 3 6.1552 29.6296 8.25164 
11826 0 3 8.75142 31.3909 8.61272 
12710 0 3 9.94542 32.8212 9.46823 
25114 0 3 7.60957 31.0055 9.91547 
6823 0 3 9.77558 28.7195 12.1141 
15451 0 3 8.47687 30.0407 12.5343 
17553 0 3 9.38078 28.51 16.0264 
21042 0 3 8.47491 28.6693 16.7264 
6867 0 3 8.1224 29.8677 15.4524 
24545 0 3 9.49896 28.052 17.6095 
25108 0 3 10.0264 30.46 18.7312 
23825 0 3 11.0096 32.1994 17.261 
2547 0 3 6.80826 28.4163 19.4047 
2337 0 3 11.2356 31.2243 20.3065 
7973 0 3 8.08361 32.3483 20.3816 
710 0 3 11.0059 32.9954 20.5539 
20684 0 3 9.66987 29.8986 21.9743 
26398 0 3 6.89819 32.7233 20.7388 
8741 0 3 9.5798 29.1621 31.0549 
21453 0 3 9.78576 28.7037 33.0241 
14349 0 3 8.55716 31.5544 32.5227 
23747 0 3 11.941 1.16727 2.89374 
8169 0 3 12.2727 0.998904 4.03613 
24803 0 3 16.9882 1.63982 2.79237 
11695 0 3 16.6974 1.57888 9.46303 
19615 0 3 12.5626 1.6755 10.3418 
13777 0 3 12.3639 3.70738 13.857 
18509 0 3 13.6338 1.96641 15.5332 
839 0 3 16.2656 2.54637 16.7939 
25665 0 3 16.591 4.32593 16.2891 
12993 0 3 14.1101 3.28801 17.28 
24966 0 3 14.8234 1.30261 20.3999 
22024 0 3 12.8844 3.62948 20.488 
14958 0 3 14.8481 3.34806 19.4383 
12077 0 3 16.6173 4.4932 19.5257 
13262 0 3 15.9517 5.27833 19.7062 
13675 0 3 16.3689 2.44619 22.3732 
26393 0 3 14.8495 5.89904 21.3207 
5766 0 3 13.0637 0.779345 23.07 
5748 0 3 16.4722 5.89742 23.4082 
8102 0 3 13.3294 5.74249 25.6777 
1043 0 3 13.2978 5.49375 28.264 
24067 0 3 15.8851 1.31134 30.6263 
22992 0 3 11.88 3.64943 32.8961 
23988 0 3 11.7803 2.65237 32.4308 
22325 0 3 12.3964 9.70498 5.15803 
16219 0 3 14.3831 6.72802 6.12053 
1972 0 3 12.3935 9.05517 15.039 
10897 0 3 11.6485 7.7563 16.4528 
23334 0 3 12.3688 7.09654 16.943 
19219 0 3 13.5357 7.42056 16.2264 
18749 0 3 16.9665 7.12242 16.8027 
21595 0 3 13.4901 10.4003 16.2026 
21869 0 3 15.1531 9.05639 18.2322 
2322 0 3 16.4377 6.21283 19.0101 
19384 0 3 11.5712 8.23275 19.1567 
25338 0 3 16.4747 9.02673 18.9007 
50 0 3 13.1495 10.3837 19.1353 
2711 0 3 14.4938 11.5169 19.6142 
6656 0 3 16.9259 9.0267 22.7953 
6319 0 3 15.8904 8.57112 24.392 
3014 0 3 15.3216 7.0197 28.2975 
21306 0 3 12.3616 8.66089 27.9926 
23902 0 3 13.7798 7.45235 30.6951 
16676 0 3 11.7498 9.99776 30.3112 
302 0 3 11.9911 12.6715 2.8234 
21967 0 3 13.7945 14.0229 2.67027 
5048 0 3 14.6874 13.906 9.5452 
3773 0 3 16.4949 14.8683 9.26587 
18042 0 3 16.3244 16.8443 9.93323 
2663 0 3 15.94 15.5883 12.3021 
16769 0 3 16.9888 15.8741 12.0818 
6115 0 3 15.6985 14.9146 13.3915 
506 0 3 11.5883 11.9724 15.9617 
5061 0 3 14.5704 11.9398 16.5192 
13478 0 3 12.9997 12.3265 18.7986 
19071 0 3 11.9739 13.5584 18.4424 
202 0 3 13.1771 16.5957 18.7562 
5787 0 3 15.5301 16.3816 18.4325 
10120 0 3 14.9947 12.3513 19.1977 
18918 0 3 16.3942 12.3882 19.2037 
13248 0 3 12.2879 16.7355 22.0025 
11381 0 3 14.5022 16.9311 27.1146 
3402 0 3 11.7503 15.6368 28.1988 
26244 0 3 13.0166 15.3205 28.8765 
4297 0 3 14.2277 16.2525 29.8224 
26675 0 3 12.0798 15.2674 31.6596 
17808 0 3 14.0957 15.8584 32.4407 
8631 0 3 15.9668 22.1292 1.07743 
13521 0 3 16.6332 21.4363 5.99803 
17330 0 3 16.1415 18.7989 8.8834 
25510 0 3 13.4126 20.4829 8.65833 
11687 0 3 11.8576 22.4153 9.01177 
26472 0 3 16.5012 17.2048 11.0497 
2216 0 3 16.8427 17.9007 10.2107 
21037 0 3 14.0457 22.3143 9.8844 
25219 0 3 15.8063 22.0549 10.7564 
18494 0 3 11.7335 17.8627 17.448 
4370 0 3 16.4537 17.3013 21.5618 
6616 0 3 15.3709 19.1198 21.5615 
23471 0 3 16.5168 18.3058 27.0571 
14256 0 3 15.6144 20.7516 26.9702 
11964 0 3 16.5837 21.0575 26.6948 
10520 0 3 15.3815 22.4438 27.8912 
12105 0 3 16.645 17.6637 29.7306 
9039 0 3 15.6485 17.8142 31.5231 
20048 0 3 15.9657 18.3056 30.488 
17889 0 3 15.1685 20.3042 29.9719 
20570 0 3 13.8053 20.1523 31.1196 
26776 0 3 12.5831 19.4497 32.9499 
13534 0 3 16.866 19.4142 32.7272 
22597 0 3 11.9441 21.8558 32.7052 
8409 0 3 12.2184 23.8997 1.49939 
6367 0 3 14.441 23.4464 0.930231 
4479 0 3 16.0157 26.6325 1.16996 
12445 0 3 14.7945 25.4806 2.82658 
10144 0 3 12.6534 26.3891 3.37941 
6819 0 3 13.0499 26.0662 5.04648 
10794 0 3 14.6013 24.9072 5.65114 
968 0 3 12.2794 26.8697 5.96612 
13101 0 3 16.3222 26.4948 6.83223 
10429 0 3 14.1088 25.3042 9.6749 
1882 0 3 16.9199 25.7144 8.95824 
8012 0 3 14.3641 24.5693 10.4902 
26247 0 3 16.6026 26.0129 11.1402 
21294 0 3 14.3325 23.9237 12.5566 
14343 0 3 15.0632 24.7413 12.233 
20341 0 3 15.3268 24.4995 13.1735 
5151 0 3 16.2724 23.5097 14.1918 
7647 0 3 14.6547 26.4616 14.7371 
13539 0 3 12.0334 23.0824 15.48 
2598 0 3 12.0668 24.9775 25.8357 
20031 0 3 13.9389 25.6456 25.3375 
14964 0 3 14.667 27.3654 24.9166 
14062 0 3 11.6977 22.5197 26.2493 
18093 0 3 16.8628 22.567 26.6714 
21482 0 3 13.7695 24.9533 26.2748 
20041 0 3 16.7504 26.8861 26.3234 
9032 0 3 16.7069 22.6049 31.6592 
12118 0 3 11.8285 30.6856 1.76735 
21388 0 3 13.7779 31.478 1.01488 
19092 0 3 16.646 31.0996 0.782314 
11266 0 3 11.6351 29.453 3.81169 
21830 0 3 15.5557 30.9036 3.36748 
2340 0 3 12.4194 29.0338 5.97129 
2198 0 3 12.2557 31.0668 4.96234 
13386 0 3 11.7481 28.5971 17.2356 
12557 0 3 14.8628 31.0511 20.4761 
20913 0 3 13.7496 32.6159 19.5803 
20889 0 3 12.934 29.0644 21.9457 
26030 0 3 16.231 30.0059 21.4326 
3154 0 3 15.9539 31.8172 22.3639 
15534 0 3 13.0692 31.0266 22.9105 
23184 0 3 13.6804 30.0939 23.1906 
13590 0 3 16.469 28.6549 25.3028 
16903 0 3 12.1467 30.2169 24.4874 
8445 0 3 12.5466 30.3975 27.3994 
20845 0 3 11.7283 30.0279 26.9123 
19134 0 3 13.3035 30.7021 29.1318 
9633 0 3 13.1379 31.731 28.9784 
21934 0 3 14.7964 32.266 31.0209 
24538 0 3 16.841 32.0987 31.437 
190 0 3 13.0939 28.7356 32.0858 
19766 0 3 13.0853 30.1696 33.2607 
11946 0 3 20.059 1.19912 2.02673 
5123 0 3 18.5859 3.53608 0.942894 
18573 0 3 21.2578 4.96796 0.969701 
19973 0 3 18.817 2.30095 2.75594 
15686 0 3 20.4307 3.73197 3.60114 
7106 0 3 21.9721 4.9871 4.05882 
23216 0 3 20.166 3.78313 6.86687 
7959 0 3 18.5427 4.50606 6.40116 
13542 0 3 19.556 4.40278 6.15259 
26099 0 3 22.1592 4.41303 8.27756 
7960 0 3 20.8868 4.24242 10.1476 
5683 0 3 17.9674 3.18866 12.4346 
25297 0 3 17.7476 1.91129 14.2759 
16847 0 3 19.9662 2.13337 14.6615 
23150 0 3 19.9706 5.17255 13.882 
3799 0 3 19.1073 3.53155 15.8996 
16119 0 3 18.0033 0.904336 19.4974 
19133 0 3 17.3128 5.44483 21.2777 
25073 0 3 19.8859 3.0552 26.5759 
4329 0 3 19.1617 5.85264 26.4681 
5196 0 3 22.3202 5.5661 29.6472 
13390 0 3 20.0603 1.42395 30.8645 
23424 0 3 19.8303 2.50888 31.5198 
1213 0 3 19.1972 4.08 30.4766 
13272 0 3 19.8588 3.61883 31.2505 
17525 0 3 20.6013 5.55058 32.8366 
23348 0 3 20.4205 6.07869 3.57579 
8474 0 3 18.4984 8.69315 4.10484 
1824 0 3 20.9446 8.85623 5.33251 
21522 0 3 21.4564 11.3705 5.30588 
9729 0 3 20.1487 10.2932 6.87062 
13230 0 3 20.8531 7.38768 11.0508 
3930 0 3 22.27 9.35015 10.8949 
18656 0 3 21.1011 10.8975 11.8933 
10330 0 3 17.4992 7.50574 13.7587 
25937 0 3 22.1389 10.5335 13.4896 
16723 0 3 17.6747 7.50318 17.7158 
8364 0 3 21.3739 6.69092 18.0315 
15316 0 3 21.8819 9.83132 17.8793 
21680 0 3 19.0278 7.16251 20.9507 
9929 0 3 17.9544 7.58284 22.5322 
21573 0 3 21.3189 11.1344 22.98 
14404 0 3 21.3354 10.4623 29.4482 
5170 0 3 19.3902 6.91956 29.9333 
3313 0 3 21.5683 9.17055 31.5634 
8439 0 3 20.6657 6.56216 31.9039 
7979 0 3 19.2273 10.3975 31.8757 
1190 0 3 17.263 13.8132 2.24817 
7249 0 3 18.6601 16.6182 2.18862 
546 0 3 19.6966 15.7396 1.96982 
2722 0 3 19.2776 12.5509 3.90272 
1107 0 3 21.8808 11.5355 7.7506 
13461 0 3 20.702 14.7399 9.55654 
19165 0 3 18.326 15.9986 8.13258 
11815 0 3 17.719 15.2557 8.6494 
19135 0 3 21.0351 16.6913 10.0207 
22827 0 3 18.9748 15.0128 12.6614 
23142 0 3 20.1613 16.8452 13.4074 
18426 0 3 21.8825 11.8999 16.9054 
20224 0 3 17.8306 16.6463 16.6958 
6605 0 3 20.9724 12.1881 19.0023 
11117 0 3 18.7363 12.9435 21.202 
16208 0 3 18.8106 12.1687 25.8873 
2 0 3 19.6424 12.5668 27.5242 
23135 0 3 17.4599 16.8882 27.5288 
16157 0 3 20.7254 14.0501 28.4964 
9808 0 3 20.3134 12.6074 30.5227 
9094 0 3 18.8173 16.1033 31.4412 
24881 0 3 20.5516 15.4852 29.9376 
23479 0 3 18.6349 21.9974 7.34458 
21904 0 3 18.5293 18.952 7.96895 
19727 0 3 20.7152 21.2201 9.37161 
13164 0 3 22.069 20.8962 9.50305 
642 0 3 19.0884 21.9013 11.1053 
5779 0 3 18.1531 18.4742 12.5297 
5345 0 3 22.4198 18.1568 14.7747 
8592 0 3 21.1521 19.0975 15.0871 
19887 0 3 17.9992 21.1107 19.4506 
20768 0 3 20.1166 20.9293 22.1331 
12784 0 3 22.3911 18.791 23.698 
21455 0 3 19.0494 22.2189 23.2406 
14020 0 3 19.0897 17.8409 30.514 
25977 0 3 17.6164 20.0514 29.9757 
25604 0 3 18.4446 17.3864 32.3618 
7117 0 3 17.5016 21.9964 32.0283 
20776 0 3 21.5245 22.3538 32.3377 
1463 0 3 21.1745 25.2294 1.21171 
15681 0 3 17.8839 23.5538 5.02966 
14215 0 3 18.7128 24.2412 5.1075 
6647 0 3 18.198 27.416 4.85217 
8517 0 3 19.5687 22.7165 6.30339 
18318 0 3 18.8269 24.8963 6.10197 
20134 0 3 17.449 26.2651 6.46331 
14129 0 3 17.1706 22.8473 8.8537 
15267 0 3 17.8075 27.6405 9.45155 
861 0 3 18.4555 25.3604 9.99026 
15327 0 3 19.8152 24.1684 13.0646 
16513 0 3 21.9031 23.8841 15.1435 
16836 0 3 20.6429 26.0451 15.0794 
7946 0 3 18.788 26.7293 14.7419 
11933 0 3 20.4353 27.2792 15.1994 
24206 0 3 21.4784 22.6215 17.2697 
9047 0 3 22.432 27.299 17.9762 
23389 0 3 20.5036 23.9915 20.3238 
24613 0 3 18.8509 27.1533 24.6158 
5173 0 3 18.5906 24.6294 29.1463 
17431 0 3 19.0735 27.0558 29.9516 
20585 0 3 21.4679 26.1716 31.3963 
16350 0 3 20.684 26.1188 30.0101 
17698 0 3 18.9954 23.3227 32.7232 
7984 0 3 19.786 22.7323 32.0519 
15818 0 3 17.9389 24.9619 31.6225 
17318 0 3 17.4983 24.6134 32.6574 
26581 0 3 19.7205 32.2423 0.961789 
2967 0 3 18.1661 28.7991 3.28159 
12723 0 3 21.5018 31.9426 3.77871 
20956 0 3 21.3191 31.6345 5.07632 
11902 0 3 20.4196 28.4166 7.47377 
8426 0 3 21.8854 28.5484 7.88399 
22331 0 3 22.2587 31.3149 6.60623 
12701 0 3 22.2521 30.5931 7.54743 
3767 0 3 20.9919 28.9799 8.18805 
14834 0 3 22.1101 28.1468 11.1216 
1580 0 3 20.8732 28.9211 10.3362 
10923 0 3 20.6567 30.7924 10.9177 
11215 0 3 19.7279 33.0938 10.7532 
12542 0 3 18.3726 28.3535 12.5763 
10638 0 3 19.3304 29.8744 11.828 
10091 0 3 22.1966 33.2271 12.4803 
19193 0 3 20.6449 28.1227 13.5063 
4665 0 3 19.8671 32.3577 16.0307 
20027 0 3 22.0345 32.2799 18.3953 
9328 0 3 20.2546 30.2365 20.3261 
15058 0 3 20.2833 31.3754 22.024 
20947 0 3 20.6866 30.4342 26.7374 
17204 0 3 20.9487 31.4993 26.281 
9798 0 3 19.3575 30.6845 28.7204 
2848 0 3 20.1287 32.0666 29.5298 
2123 0 3 20.6942 28.3392 31.1694 
8339 0 3 22.2128 27.9598 30.486 
1235 0 3 19.3938 28.6668 32.7894 
12919 0 3 24.8421 3.37684 1.14001 
8967 0 3 23.9004 5.71813 3.35469 
4235 0 3 24.6513 5.60305 4.28997 
25360 0 3 22.9371 5.81728 6.36269 
10856 0 3 23.4482 2.68318 8.88578 
18424 0 3 25.4546 1.40555 10.3558 
6075 0 3 23.8583 4.10611 10.6628 
19448 0 3 24.0147 1.54212 12.4485 
26953 0 3 23.6666 3.4519 12.7008 
7486 0 3 23.799 5.47295 12.9924 
18747 0 3 24.1197 1.62119 14.218 
5452 0 3 26.2906 3.43743 14.2585 
7441 0 3 27.4633 4.44284 14.8999 
18577 0 3 23.4884 0.923834 16.881 
2212 0 3 27.6539 1.72383 17.9114 
15904 0 3 24.6618 0.621654 19.9503 
2074 0 3 26.9699 1.98783 20.7025 
16845 0 3 25.0601 2.40131 27.4947 
14235 0 3 23.0604 3.51433 27.1777 
7347 0 3 23.2494 4.9245 29.5208 
1234 0 3 24.7754 5.37503 28.5214 
6638 0 3 27.6686 5.57808 28.7409 
1067 0 3 22.5952 5.54413 31.5605 
869 0 3 24.1666 4.88372 32.6453 
11356 0 3 26.2963 7.99609 1.05134 
15307 0 3 25.0444 8.51914 3.83164 
180 0 3 27.4416 9.01912 5.91522 
16673 0 3 23.7056 6.28463 7.76737 
672 0 3 27.6499 7.08422 7.82085 
8011 0 3 22.7551 8.71893 6.36223 
20513 0 3 24.3018 9.03259 7.19213 
17254 0 3 23.5286 7.08408 8.41694 
11533 0 3 27.1888 7.53915 9.53365 
7515 0 3 26.7585 9.00664 8.06447 
12261 0 3 24.5184 11.2468 8.54506 
12696 0 3 22.643 6.59625 10.2817 
17742 0 3 24.8324 6.44208 9.98398 
5152 0 3 27.6006 6.88155 12.1994 
25622 0 3 23.7013 8.17349 11.7571 
9383 0 3 24.0522 9.62663 12.935 
2520 0 3 26.3015 8.24395 12.912 
16008 0 3 24.6255 11.2507 12.5435 
15647 0 3 26.1874 7.22142 13.5382 
10868 0 3 23.4589 6.64951 16.1609 
18446 0 3 22.594 8.7174 15.4773 
19084 0 3 25.6444 9.60215 16.8629 
25521 0 3 27.0034 9.61754 15.8343 
3078 0 3 24.5673 6.29766 29.6162 
16935 0 3 26.216 8.41195 29.6478 
18895 0 3 26.8058 11.2644 28.2487 
23220 0 3 22.5652 7.36582 30.2604 
6886 0 3 27.472 7.61572 30.7673 
1245 0 3 26.3242 7.84243 31.9777 
25586 0 3 27.5787 14.0401 0.780187 
16828 0 3 22.8075 16.0996 1.39773 
19000 0 3 24.4587 13.3517 5.0929 
8808 0 3 25.5312 11.6215 6.85677 
16069 0 3 25.2221 14.7298 7.07502 
18386 0 3 26.9777 14.0231 7.02382 
9966 0 3 25.3324 13.2046 8.53987 
8166 0 3 27.173 13.0818 8.74445 
12256 0 3 23.6049 14.1869 8.12056 
22458 0 3 27.7048 14.02 8.83769 
17324 0 3 24.8241 15.2219 9.58748 
14124 0 3 26.6202 15.3571 9.58206 
19037 0 3 26.2437 12.0769 11.7456 
22816 0 3 22.6728 16.3812 13.033 
22609 0 3 26.1305 15.9097 12.1259 
1295 0 3 25.3943 11.6156 14.3084 
11713 0 3 26.0616 14.1624 13.4351 
24641 0 3 23.5094 15.7161 13.6301 
20998 0 3 27.3647 16.1092 13.3635 
22380 0 3 27.2233 15.8579 14.4985 
7229 0 3 25.1232 14.7075 15.8426 
25609 0 3 22.5637 15.4965 16.3313 
8985 0 3 24.4776 16.7399 16.2803 
20028 0 3 27.7974 16.7689 15.3363 
9284 0 3 26.1352 13.4389 17.4265 
19786 0 3 22.8419 13.6249 19.8894 
18968 0 3 26.178 15.7882 19.9606 
23412 0 3 24.5737 14.6873 25.2265 
15049 0 3 25.7529 15.598 25.2434 
5781 0 3 24.5539 16.276 25.2182 
14126 0 3 25.4473 16.6614 24.789 
26267 0 3 24.6803 16.0308 26.8441 
17924 0 3 26.7977 15.6339 26.8415 
7289 0 3 24.5083 12.9073 28.4414 
7714 0 3 23.3411 14.0331 28.7916 
25298 0 3 26.6451 13.6201 28.5793 
15838 0 3 23.3554 15.476 28.9755 
19873 0 3 26.5663 16.8131 31.2026 
22021 0 3 26.5707 14.8749 31.902 
18937 0 3 25.8801 18.075 0.618467 
4489 0 3 26.5001 21.1061 1.15856 
5940 0 3 27.6391 21.2537 2.06486 
23253 0 3 26.8699 21.5738 2.8221 
23149 0 3 22.6161 18.3739 9.62166 
24467 0 3 26.6548 17.7452 9.32156 
5900 0 3 24.4997 19.9487 9.9404 
17446 0 3 27.6892 19.3093 13.1902 
14925 0 3 26.0365 18.2454 14.4051 
17572 0 3 26.2738 17.2236 13.8565 
25347 0 3 24.9979 19.6028 16.8241 
22400 0 3 23.1009 20.7454 18.7121 
21022 0 3 24.0442 21.9151 17.5878 
15453 0 3 26.6664 17.2104 20.2658 
14166 0 3 24.817 19.9186 19.1187 
11362 0 3 25.3858 20.0127 22.0961 
18313 0 3 24.921 21.2022 23.4407 
9260 0 3 26.1707 18.6069 24.7484 
22390 0 3 26.4321 21.1728 26.8426 
6419 0 3 24.6224 18.2527 28.9046 
19383 0 3 27.3262 18.4399 31.5172 
16118 0 3 27.4225 21.6898 30.5711 
9238 0 3 25.5837 22.9083 0.623578 
9582 0 3 26.5537 22.5109 1.13838 
16084 0 3 27.8022 22.645 8.6954 
20315 0 3 27.0649 27.4371 10.1926 
20911 0 3 24.4255 26.1014 16.8724 
18305 0 3 25.7292 23.2281 17.8791 
12957 0 3 26.0777 25.8569 18.128 
3607 0 3 27.6824 26.4438 19.6077 
21652 0 3 27.5863 23.5396 25.7477 
14708 0 3 26.5504 26.7431 26.7282 
12924 0 3 27.5232 27.6669 29.84 
23117 0 3 22.7946 23.0473 33.0099 
20097 0 3 23.6727 23.6321 32.8302 
10094 0 3 26.3084 25.8223 33.1356 
10104 0 3 26.518 24.6436 32.2964 
10 0 3 24.7685 26.4372 32.5761 
13235 0 3 22.5489 28.9469 2.896 
23384 0 3 25.2445 28.0755 7.13707 
12594 0 3 22.5348 30.7018 9.88424 
11747 0 3 23.0533 29.5895 13.0981 
22265 0 3 24.9315 31.8156 11.8016 
19340 0 3 25.8873 33.3167 12.3178 
7563 0 3 24.2433 30.9383 13.949 
2060 0 3 24.4332 30.3017 14.7442 
291 0 3 22.6772 32.9404 14.7676 
22968 0 3 25.7661 32.7539 16.7626 
19492 0 3 23.5585 30.1933 17.5823 
24555 0 3 26.1271 31.4608 17.7718 
5234 0 3 23.0672 30.8397 19.3629 
4089 0 3 25.1253 31.7859 21.9079 
10673 0 3 22.8717 31.2934 23.123 
6166 0 3 27.2663 32.7497 23.5088 
23110 0 3 27.2655 32.2474 25.718 
6392 0 3 22.6048 32.2025 27.0535 
24561 0 3 23.0828 30.3814 29.6602 
14320 0 3 32.6353 2.10701 1.71415 
2202 0 3 32.9236 5.76903 5.68737 
7866 0 3 29.5603 4.00856 7.66844 
8624 0 3 31.8401 3.68293 7.67092 
24198 0 3 28.2566 5.11171 8.82009 
25329 0 3 29.0102 1.58883 13.2173 
10166 0 3 31.1296 1.07176 17.7571 
9614 0 3 29.0686 6.03005 18.8163 
19404 0 3 28.2955 5.62564 17.848 
13377 0 3 30.9339 0.80644 22.3231 
7932 0 3 30.6737 2.54384 21.0108 
5469 0 3 30.6937 4.50903 21.6957 
16719 0 3 28.7845 3.55205 24.2421 
21598 0 3 31.3419 5.26776 24.237 
4280 0 3 32.3898 4.6292 24.1003 
8869 0 3 32.0199 1.87342 24.3011 
16422 0 3 29.4846 4.62865 25.8365 
9714 0 3 30.0296 3.00341 26.992 
21845 0 3 32.9835 3.28586 28.8941 
4181 0 3 29.4652 5.04537 29.0143 
10137 0 3 28.3575 4.74244 28.6761 
10556 0 3 30.31 5.81734 29.0397 
8326 0 3 32.9029 4.79989 28.9637 
6414 0 3 32.8576 5.2321 30.2775 
1134 0 3 29.8062 10.5383 0.79933 
5533 0 3 32.8884 9.46175 4.98301 
16462 0 3 33.2578 7.69586 7.82907 
18073 0 3 32.0905 9.42365 6.60222 
25081 0 3 33.2569 11.1515 6.61042 
4662 0 3 30.3408 6.83444 8.78878 
21440 0 3 32.2269 8.94391 9.63178 
3814 0 3 28.5931 10.8373 9.58583 
7627 0 3 29.178 8.47357 12.3204 
16367 0 3 32.7504 8.29215 12.8516 
15315 0 3 28.3487 10.1914 13.3507 
21576 0 3 30.75 10.1913 12.6123 
9053 0 3 31.5254 10.0393 11.6797 
11583 0 3 28.8055 6.52237 16.9047 
21677 0 3 33.1247 8.60583 16.1529 
4875 0 3 28.6453 11.0799 15.1995 
19450 0 3 29.3326 11.2122 16.0521 
14409 0 3 31.0023 7.176 20.5694 
15372 0 3 30.3432 7.4708 21.6001 
20674 0 3 29.6084 11.1055 21.8246 
15156 0 3 29.6806 11.0275 24.7059 
3747 0 3 31.6265 10.8721 24.3058 
20054 0 3 32.4958 7.67119 26.3343 
5195 0 3 33.0702 8.45651 29.5956 
13769 0 3 28.912 9.93132 28.762 
8367 0 3 33.3135 10.7095 29.6168 
5621 0 3 30.9177 9.19996 29.7718 
3759 0 3 31.8906 9.92494 31.5237 
11549 0 3 32.0652 12.5292 7.31813 
4216 0 3 32.9945 12.5533 8.67223 
17420 0 3 32.3319 16.9799 11.0472 
12435 0 3 29.584 16.3548 12.5833 
20477 0 3 29.0909 11.6492 13.495 
11335 0 3 30.1814 16.5724 15.1503 
16174 0 3 30.1844 14.048 17.2916 
2838 0 3 30.0523 15.166 17.481 
25763 0 3 32.5856 13.8207 18.7728 
24804 0 3 28.4432 14.793 18.9982 
16107 0 3 31.0511 12.251 21.4096 
15535 0 3 33.341 12.7217 23.4393 
14119 0 3 32.156 12.5592 23.3292 
2661 0 3 28.6553 14.4412 25.1186 
21601 0 3 33.3167 13.4778 25.7486 
15373 0 3 30.2171 16.0306 25.1298 
11359 0 3 30.2115 14.161 26.6529 
16697 0 3 28.7762 16.6668 27.5953 
4730 0 3 32.1867 13.7719 28.1391 
16451 0 3 29.0244 11.6244 30.3901 
25062 0 3 29.2772 13.2678 30.176 
7810 0 3 31.6954 11.8326 30.5731 
23050 0 3 28.6497 12.9198 32.2523 
146 0 3 28.1673 18.7064 2.34568 
17679 0 3 30.5839 19.1853 1.49767 
26381 0 3 32.4899 21.907 1.38253 
20408 0 3 30.6073 17.498 3.73599 
12821 0 3 30.6675 19.4784 3.04573 
15640 0 3 30.5886 22.2689 2.93754 
25573 0 3 32.0246 17.1491 4.95925 
10383 0 3 32.4956 18.99 5.55854 
3686 0 3 28.9781 22.0537 4.2848 
18379 0 3 30.3125 21.8415 5.9 
26213 0 3 30.2874 17.632 7.44178 
24998 0 3 27.9857 19.9286 7.26141 
11756 0 3 29.2859 21.5189 6.09429 
7803 0 3 31.0102 20.4607 7.89548 
14324 0 3 30.2753 20.1017 8.8637 
13787 0 3 28.4328 21.5648 8.88913 
5472 0 3 30.8181 18.4728 10.9021 
10424 0 3 29.2374 19.5077 11.4075 
7787 0 3 32.8736 20.5992 12.7423 
22603 0 3 29.6532 20.6587 11.654 
11629 0 3 28.7413 17.2959 14.81 
1038 0 3 28.6773 22.4177 13.8444 
12714 0 3 30.0419 20.7687 13.9485 
541 0 3 29.3575 19.7624 15.1932 
3667 0 3 28.0451 21.8757 26.0393 
11132 0 3 29.0245 20.5424 29.3794 
20569 0 3 29.5081 19.3988 29.8352 
21784 0 3 29.8686 17.7741 32.8428 
18441 0 3 29.7602 22.179 32.3261 
6299 0 3 29.6226 26.801 1.08463 
1594 0 3 29.1453 23.7851 4.00726 
1516 0 3 30.1466 25.678 3.29355 
4491 0 3 33.3268 26.3337 3.76986 
20240 0 3 31.076 25.3709 7.55934 
25379 0 3 31.5552 25.4175 6.49225 
15170 0 3 29.1662 26.3732 7.37761 
21816 0 3 33.3747 22.5726 8.0218 
883 0 3 31.6178 24.9719 9.40491 
12334 0 3 30.2906 23.1664 9.70915 
17314 0 3 32.8462 23.5061 9.92899 
814 0 3 30.9284 26.796 9.94917 
638 0 3 31.3765 24.0652 15.1263 
24350 0 3 30.6647 25.2182 15.0476 
17419 0 3 29.5898 26.7536 13.5285 
22293 0 3 28.8523 23.8466 16.2437 
12219 0 3 31.3108 23.1901 16.8855 
21935 0 3 31.0902 27.5025 15.3547 
23857 0 3 29.603 23.141 17.8462 
4709 0 3 29.4052 25.7176 17.1109 
8136 0 3 30.5411 26.7091 18.0992 
25048 0 3 33.1227 24.9363 20.2712 
15805 0 3 32.3866 25.5539 19.4584 
8670 0 3 29.0399 25.599 21.0057 
8493 0 3 30.4083 25.2882 22.2917 
18095 0 3 32.1155 23.8045 23.1336 
11028 0 3 29.5899 26.273 23.8447 
26111 0 3 28.2016 23.4054 24.7514 
21649 0 3 32.2747 24.5046 24.6126 
2725 0 3 28.7983 22.5357 26.4848 
26368 0 3 30.792 23.8087 26.2036 
21212 0 3 31.821 22.6554 26.8837 
1049 0 3 28.1394 25.3535 26.3317 
12785 0 3 28.6149 26.6166 26.899 
21065 0 3 31.6484 23.6328 28.311 
12311 0 3 29.1608 24.3261 29.0873 
3898 0 3 30.461 25.3892 29.0959 
14425 0 3 30.5639 26.8333 28.1289 
11446 0 3 30.8296 23.0508 31.1897 
15564 0 3 28.4851 24.3236 31.1426 
1606 0 3 30.618 24.9119 30.1474 
8556 0 3 29.5827 27.0835 30.8464 