LAMMPS (3 Mar 2020)
OMP_NUM_THREADS environment is not set. Defaulting to 1 thread. (src/comm.cpp:94)
  using 1 OpenMP thread(s) per MPI task
Reading restart file ...
  restart file = 3 Mar 2020, LAMMPS = 3 Mar 2020
  restoring atom style full from restart
  orthogonal box = (0.591533 0.591533 0.591533) to (33.4085 33.4085 33.4085)
  6 by 6 by 6 MPI processor grid
  restoring pair style hybrid/overlay from restart
  restoring bond style fene from restart
  28900 atoms
  8700 bonds
Finding 1-2 1-3 1-4 neighbors ...
  special bond factors lj:   0          1          1         
  special bond factors coul: 0          1          1         
  2 = max # of 1-2 neighbors
  6 = max # of special neighbors
  special bonds CPU = 2.46912 secs
  read_restart CPU = 2.61649 secs
Resetting global fix info from restart file:
  fix style: nvt, fix ID: pt
100 rigid bodies with 1900 atoms
Resetting global fix info from restart file:
  fix style: rigid/nvt, fix ID: ri
System init for write_data ...
PPPM initialization ...
  using 12-bit tables for long-range coulomb (src/kspace.cpp:332)
  G vector (1/distance) = 1.17992
  grid = 100 100 100
  stencil order = 5
  estimated absolute RMS force accuracy = 0.000122379
  estimated relative force accuracy = 0.000122379
  using double precision FFTW3
  3d grid and FFT values/proc = 12167 5400
All restart file global fix info was re-assigned
Unused restart file peratom fix info:
  fix style: STORE, fix ID: par_COMPUTE_STORE
WARNING: Neighbor exclusions used with KSpace solver may give inconsistent Coulombic energies (src/neighbor.cpp:486)
Neighbor list info ...
  update every 1 steps, delay 0 steps, check yes
  max neighbors/atom: 2000, page size: 100000
  master list distance cutoff = 2.8
  ghost atom cutoff = 2.8
  binsize = 1.4, bins = 24 24 24
  2 neighbor lists, perpetual/occasional/extra = 2 0 0
  (1) pair lj/cut, perpetual
      attributes: half, newton on
      pair build: half/bin/newton
      stencil: half/bin/3d/newton
      bin: standard
  (2) pair coul/long, perpetual, skip from (1)
      attributes: half, newton on
      pair build: skip
      stencil: none
      bin: none
PPPM initialization ...
  using 12-bit tables for long-range coulomb (src/kspace.cpp:332)
  G vector (1/distance) = 1.17992
  grid = 100 100 100
  stencil order = 5
  estimated absolute RMS force accuracy = 0.000122379
  estimated relative force accuracy = 0.000122379
  using double precision FFTW3
  3d grid and FFT values/proc = 12167 5400
WARNING: Neighbor exclusions used with KSpace solver may give inconsistent Coulombic energies (src/neighbor.cpp:486)
Neighbor list info ...
  update every 1 steps, delay 0 steps, check yes
  max neighbors/atom: 2000, page size: 100000
  master list distance cutoff = 2.8
  ghost atom cutoff = 2.8
  binsize = 1.4, bins = 24 24 24
  2 neighbor lists, perpetual/occasional/extra = 2 0 0
  (1) pair lj/cut, perpetual
      attributes: half, newton on
      pair build: half/bin/newton
      stencil: half/bin/3d/newton
      bin: standard
  (2) pair coul/long, perpetual, skip from (1)
      attributes: half, newton on
      pair build: skip
      stencil: none
      bin: none
Setting up Verlet run ...
  Unit style    : lj
  Current step  : 12000000
  Time step     : 0.005
Per MPI rank memory allocation (min/avg/max) = 10.32 | 10.44 | 10.61 Mbytes
Step Temp Press Volume 
12000000   0.79770365  -0.30288064    35342.233 
12010000   0.79834375  -0.19146973    35342.233 
12020000   0.81130864   -0.0719036    35342.233 
12030000   0.80083143  -0.18480584    35342.233 
12040000   0.79730238  -0.13225001    35342.233 
12050000   0.80460856  -0.17388569    35342.233 
12060000   0.80415634 -0.096844682    35342.233 
12070000   0.80082728  -0.16431237    35342.233 
12080000   0.79198958  -0.17599421    35342.233 
12090000   0.80321025  -0.18672906    35342.233 
12100000   0.79220423  -0.11397292    35342.233 
12110000   0.79930412  -0.14734632    35342.233 
12120000   0.79460711  -0.13660686    35342.233 
12130000   0.79930672  -0.14447983    35342.233 
12140000   0.80468479  -0.16083611    35342.233 
12150000   0.79882419  -0.18285794    35342.233 
12160000   0.80724785    -0.179749    35342.233 
12170000   0.79892743  -0.13950485    35342.233 
12180000   0.80440066 -0.097811573    35342.233 
12190000   0.79444352  -0.10509683    35342.233 
12200000    0.8071442  -0.12007452    35342.233 
12210000   0.79675666  -0.10676106    35342.233 
12220000   0.79684538  -0.14786751    35342.233 
12230000   0.79440575  -0.15685772    35342.233 
12240000    0.7969801  -0.17022469    35342.233 
12250000    0.7927733  -0.15450479    35342.233 
12260000   0.80153369   -0.1544144    35342.233 
12270000   0.79863052  -0.20019404    35342.233 
12280000   0.79984481  -0.15239403    35342.233 
12290000   0.80834341  -0.20061028    35342.233 
12300000   0.79742927  -0.11664719    35342.233 
12310000   0.80194377  -0.14640764    35342.233 
12320000    0.8056435  -0.14040658    35342.233 
12330000    0.8016343  -0.20015825    35342.233 
12340000   0.79313632  -0.10546985    35342.233 
12350000   0.80038934  -0.19001195    35342.233 
12360000   0.80494071  -0.21580489    35342.233 
12370000   0.79884377  -0.10613465    35342.233 
12380000   0.80396862  -0.11886744    35342.233 
12390000   0.80254182  -0.16175163    35342.233 
12400000   0.80184186 -0.099099393    35342.233 
12410000   0.79900691  -0.16548817    35342.233 
12420000   0.80494385 -0.099783451    35342.233 
12430000   0.79637299  -0.21459014    35342.233 
12440000   0.79633196   -0.1519333    35342.233 
12450000   0.80644152 -0.087656684    35342.233 
12460000   0.79309554  -0.12107533    35342.233 
12470000    0.8036087  -0.21456959    35342.233 
12480000   0.79991107  -0.15571539    35342.233 
12490000   0.79974652  -0.15075413    35342.233 
12500000   0.80163893  -0.18816875    35342.233 
12510000   0.80591041  -0.14384557    35342.233 
12520000    0.8014807 -0.078733646    35342.233 
12530000   0.80628962  -0.16272637    35342.233 
12540000   0.80388183   -0.1124602    35342.233 
12550000   0.79767075 -0.089347091    35342.233 
12560000   0.80178372  -0.11350093    35342.233 
12570000   0.79940604  -0.16265459    35342.233 
12580000   0.79832674   -0.1680281    35342.233 
12590000   0.79885801  -0.17907608    35342.233 
12600000   0.79816093  -0.17725951    35342.233 
12610000   0.79897693  -0.21892674    35342.233 
12620000   0.80006483  -0.19709907    35342.233 
12630000   0.79372689  -0.13060796    35342.233 
12640000   0.80360565  -0.20367219    35342.233 
12650000   0.79777218  -0.12479207    35342.233 
12660000   0.80131127  -0.18281727    35342.233 
12670000    0.8050396    -0.133729    35342.233 
12680000    0.8036135  -0.19564262    35342.233 
12690000   0.79577398  -0.19182105    35342.233 
12700000   0.79251567  -0.11646138    35342.233 
12710000   0.79373101 -0.093709785    35342.233 
12720000   0.79474384   -0.1482965    35342.233 
12730000   0.79553294  -0.11470004    35342.233 
12740000   0.80392103 -0.071847619    35342.233 
12750000   0.80098265  -0.13300463    35342.233 
12760000   0.79860244  -0.15861091    35342.233 
12770000   0.79678207  -0.14188161    35342.233 
12780000   0.79725763  -0.14499687    35342.233 
12790000   0.79646744   -0.1425785    35342.233 
12800000   0.79344393  -0.14558347    35342.233 
12810000   0.79766929   -0.1316552    35342.233 
12820000   0.79584861  -0.20405488    35342.233 
12830000   0.79818839  -0.16033058    35342.233 
12840000   0.80151167   -0.1192459    35342.233 
12850000   0.80476971  -0.11464569    35342.233 
12860000   0.79937207  -0.15943782    35342.233 
12870000   0.79961409   -0.1382602    35342.233 
12880000   0.80275602  -0.21491128    35342.233 
12890000   0.79643069  -0.14616557    35342.233 
12900000   0.79858986  -0.16323308    35342.233 
12910000   0.79646749  -0.18203983    35342.233 
12920000   0.80278095  -0.15951519    35342.233 
12930000   0.80340815   -0.1885379    35342.233 
12940000   0.80090722  -0.12264086    35342.233 
12950000    0.7982533  -0.16113547    35342.233 
12960000   0.79255906 -0.096339557    35342.233 
12970000   0.80276844  -0.19531103    35342.233 
12980000   0.80227534 -0.092311679    35342.233 
12990000   0.79869594  -0.15951661    35342.233 
13000000   0.79834339  -0.15417054    35342.233 
Loop time of 10450.2 on 216 procs for 1000000 steps with 28900 atoms

Performance: 41338.888 tau/day, 95.692 timesteps/s
99.9% CPU use with 216 MPI tasks x 1 OpenMP threads

MPI task timing breakdown:
Section |  min time  |  avg time  |  max time  |%varavg| %total
---------------------------------------------------------------
Pair    | 81.113     | 136.49     | 186.13     | 175.8 |  1.31
Bond    | 1.1642     | 2.1533     | 2.8588     |  21.5 |  0.02
Kspace  | 9233.8     | 9384.7     | 9495.5     |  50.7 | 89.80
Neigh   | 130.88     | 136.1      | 142        |  21.3 |  1.30
Comm    | 250.58     | 323.75     | 432.07     | 216.2 |  3.10
Output  | 0.010567   | 0.01282    | 0.027945   |   1.1 |  0.00
Modify  | 325.47     | 372.09     | 416.24     | 104.2 |  3.56
Other   |            | 94.9       |            |       |  0.91

Nlocal:    133.796 ave 224 max 3 min
Histogram: 2 3 1 5 6 99 72 22 5 1
Nghost:    975.491 ave 1139 max 434 min
Histogram: 2 1 1 6 4 7 18 74 79 24
Neighs:    5140.78 ave 11009 max 55 min
Histogram: 5 3 6 47 79 48 21 1 5 1

Total # of neighbors = 1110408
Ave neighs/atom = 38.4224
Ave special neighs/atom = 0.602076
Neighbor list builds = 134315
Dangerous builds = 0
PPPM initialization ...
  using 12-bit tables for long-range coulomb (src/kspace.cpp:332)
  G vector (1/distance) = 1.17992
  grid = 100 100 100
  stencil order = 5
  estimated absolute RMS force accuracy = 0.000122379
  estimated relative force accuracy = 0.000122379
  using double precision FFTW3
  3d grid and FFT values/proc = 12167 5400
WARNING: Neighbor exclusions used with KSpace solver may give inconsistent Coulombic energies (src/neighbor.cpp:486)
Neighbor list info ...
  update every 1 steps, delay 0 steps, check yes
  max neighbors/atom: 2000, page size: 100000
  master list distance cutoff = 2.8
  ghost atom cutoff = 2.8
  binsize = 1.4, bins = 24 24 24
  12 neighbor lists, perpetual/occasional/extra = 2 10 0
  (1) pair lj/cut, perpetual
      attributes: half, newton on
      pair build: half/bin/newton
      stencil: half/bin/3d/newton
      bin: standard
  (2) pair coul/long, perpetual, skip from (1)
      attributes: half, newton on
      pair build: skip
      stencil: none
      bin: none
  (3) compute rdf, occasional, copy from (1)
      attributes: half, newton on
      pair build: copy
      stencil: none
      bin: none
  (4) compute rdf, occasional, copy from (1)
      attributes: half, newton on
      pair build: copy
      stencil: none
      bin: none
  (5) compute rdf, occasional, copy from (1)
      attributes: half, newton on
      pair build: copy
      stencil: none
      bin: none
  (6) compute rdf, occasional, copy from (1)
      attributes: half, newton on
      pair build: copy
      stencil: none
      bin: none
  (7) compute rdf, occasional, copy from (1)
      attributes: half, newton on
      pair build: copy
      stencil: none
      bin: none
  (8) compute rdf, occasional, copy from (1)
      attributes: half, newton on
      pair build: copy
      stencil: none
      bin: none
  (9) compute rdf, occasional, copy from (1)
      attributes: half, newton on
      pair build: copy
      stencil: none
      bin: none
  (10) compute rdf, occasional, copy from (1)
      attributes: half, newton on
      pair build: copy
      stencil: none
      bin: none
  (11) compute rdf, occasional, copy from (1)
      attributes: half, newton on
      pair build: copy
      stencil: none
      bin: none
  (12) compute rdf, occasional, copy from (1)
      attributes: half, newton on
      pair build: copy
      stencil: none
      bin: none
Setting up Verlet run ...
  Unit style    : lj
  Current step  : 0
  Time step     : 0.005
WARNING: One or more chunks do not contain all atoms in molecule (src/compute_chunk_atom.cpp:1163)
Per MPI rank memory allocation (min/avg/max) = 16.14 | 19.59 | 20.16 Mbytes
Step Temp Press PotEng KinEng E_pair E_bond TotEng 
       0   0.79834339  -0.44290304   0.88047051    1.1270316   -5.3260653    6.2065358    2.0075021 
   10000   0.79638951 -0.088506518   0.86419832    1.1242733   -5.3394425    6.2036408    1.9884716 
   20000   0.80124965   -0.1857189   0.87849864    1.1311344   -5.3255666    6.2040652     2.009633 
   30000   0.79607279  -0.13667403   0.86421275    1.1238262   -5.3392341    6.2034468    1.9880389 
   40000   0.80673995  -0.16052504   0.87247066    1.1388851   -5.3313156    6.2037863    2.0113558 
   50000   0.80757063  -0.11740617   0.87701222    1.1400578   -5.3287772    6.2057894      2.01707 
   60000   0.80485717  -0.14822825   0.86854135    1.1362272   -5.3366901    6.2052314    2.0047685 
   70000   0.79778475  -0.21030577    0.8742559    1.1262429   -5.3266903    6.2009462    2.0004989 
   80000   0.79344797   -0.1576477   0.86545163    1.1201207   -5.3361306    6.2015822    1.9855723 
   90000   0.80299653 -0.080895235   0.87023124    1.1336005   -5.3337897     6.204021    2.0038317 
  100000     0.794792  -0.20738988   0.86544107     1.122018    -5.339828    6.2052691    1.9874591 
  110000   0.80522752  -0.11735622   0.86552338      1.13675   -5.3391551    6.2046785    2.0022734 
  120000   0.79806574  -0.11978071   0.87288299    1.1266396   -5.3325519    6.2054349    1.9995226 
  130000   0.80068691  -0.13418988   0.87488802      1.13034   -5.3322431    6.2071311     2.005228 
  140000   0.79323995  -0.21023672    0.8656644     1.119827   -5.3405121    6.2061765    1.9854914 
  150000   0.79373522  -0.11585814   0.86816991    1.1205262   -5.3347664    6.2029363    1.9886961 
  160000   0.80429887  -0.13064038    0.8620835     1.135439   -5.3411994    6.2032829    1.9975225 
  170000   0.79809722  -0.11723537   0.88280663    1.1266841    -5.322247    6.2050536    2.0094907 
  180000   0.79666418  -0.16764675   0.86941272     1.124661   -5.3342007    6.2036134    1.9940737 
  190000   0.81392679  -0.13634236   0.85673758    1.1490309   -5.3496538    6.2063914    2.0057685 
  200000   0.79863262  -0.13754093   0.86672597    1.1274399   -5.3354877    6.2022137    1.9941659 
  210000   0.79810164  -0.13253655   0.86158605    1.1266903   -5.3418139    6.2033999    1.9882763 
  220000   0.80089396  -0.19075869     0.864446    1.1306323   -5.3390224    6.2034684    1.9950783 
  230000   0.79376351  -0.16046208   0.87346893    1.1205661   -5.3295771     6.203046     1.994035 
  240000   0.79600569  -0.20314675   0.87789097    1.1237314   -5.3271282    6.2050192    2.0016224 
  250000   0.79790902  -0.15057142    0.8707995    1.1264184   -5.3318177    6.2026172    1.9972179 
  260000   0.79913727  -0.16295155    0.8887505    1.1281523   -5.3182152    6.2069657    2.0169028 
  270000   0.79562745  -0.22349551   0.87980151    1.1231975   -5.3264543    6.2062558     2.002999 
  280000   0.79831884  -0.13475004    0.8815581    1.1269969   -5.3255373    6.2070954     2.008555 
  290000   0.79402137   -0.1630825   0.86059787    1.1209301    -5.343137    6.2037348     1.981528 
  300000   0.81131055  -0.10351471   0.87752931    1.1453375   -5.3279501    6.2054794    2.0228668 
  310000     0.800817   -0.1501789   0.87530245    1.1305236   -5.3298303    6.2051328    2.0058261 
  320000   0.80164104  -0.11761192   0.86546226    1.1316869   -5.3402693    6.2057316    1.9971492 
  330000   0.79841866  -0.17418092   0.87008205    1.1271378   -5.3354428    6.2055248    1.9972199 
  340000   0.79249465  -0.15663109   0.86921434    1.1187748   -5.3334468    6.2026612    1.9879892 
  350000   0.79601927  -0.10032229   0.87333269    1.1237506   -5.3321717    6.2055044    1.9970833 
  360000   0.80356997  -0.18386218   0.86527854      1.13441   -5.3406553    6.2059339    1.9996886 
  370000   0.79828481  -0.14182662   0.87913753    1.1269489   -5.3250277    6.2041653    2.0060864 
  380000   0.79759426  -0.17392637   0.89082851     1.125974   -5.3150657    6.2058942    2.0168025 
  390000   0.79438098  -0.16821603   0.87601422    1.1214378   -5.3282185    6.2042327     1.997452 
  400000   0.80412063  -0.13415931   0.87318767    1.1351874   -5.3313167    6.2045044    2.0083751 
  410000   0.79553861  -0.11797419   0.87580045     1.123072   -5.3289857    6.2047861    1.9988725 
  420000   0.79931289 -0.096504352   0.86413406    1.1284002   -5.3394721    6.2036062    1.9925343 
  430000   0.79534234  -0.17485148    0.8686677     1.122795   -5.3363005    6.2049682    1.9914627 
  440000   0.80892856  -0.12936102   0.87885336    1.1419748   -5.3247734    6.2036268    2.0208282 
  450000   0.79895781  -0.11969334   0.88889703     1.127899   -5.3144721    6.2033691     2.016796 
  460000   0.80017895 -0.069289883   0.86508326    1.1296229   -5.3389902    6.2040734    1.9947061 
  470000   0.80067262  -0.13121482   0.88647756    1.1303198   -5.3166274    6.2031049    2.0167973 
  480000   0.79748769  -0.14029035   0.86805455    1.1258236   -5.3373203    6.2053748    1.9938781 
  490000   0.80263443  -0.14091646   0.85723998    1.1330893    -5.344567    6.2018069    1.9903293 
  500000   0.80104386  -0.14827372   0.87460214    1.1308439   -5.3300694    6.2046716     2.005446 
  510000   0.80763922  -0.17476404   0.87301602    1.1401546   -5.3311984    6.2042144    2.0131706 
  520000    0.8001262 -0.093555434   0.86683421    1.1295484   -5.3339683    6.2008026    1.9963826 
  530000   0.81088333  -0.12307884   0.88204316    1.1447344    -5.319855    6.2018982    2.0267775 
  540000   0.80282408  -0.14919948   0.86790282     1.133357   -5.3339158    6.2018186    2.0012599 
  550000   0.80058581  -0.11011503   0.87915252    1.1301972   -5.3243037    6.2034562    2.0093498 
  560000   0.79841847  -0.17770713    0.8962079    1.1271376   -5.3047653    6.2009732    2.0233455 
  570000   0.80294974  -0.13163436   0.87377759    1.1335344    -5.330706    6.2044836     2.007312 
  580000   0.80090337  -0.12037678    0.8667628    1.1306455   -5.3391033    6.2058661    1.9974083 
  590000   0.79732976 -0.093833835   0.87759965    1.1256006   -5.3281138    6.2057135    2.0032003 
  600000   0.80055986   -0.1161826   0.86803802    1.1301606   -5.3349408    6.2029788    1.9981986 
  610000   0.80442726  -0.19234375   0.89435712    1.1356203   -5.3147166    6.2090738    2.0299774 
  620000   0.79874476  -0.14257787   0.86477021    1.1275982   -5.3399479    6.2047181    1.9923684 
  630000   0.80102988  -0.12740637   0.88034885    1.1308241   -5.3232595    6.2036083     2.011173 
  640000   0.80785939 -0.094886433   0.88809253    1.1404654   -5.3141674      6.20226     2.028558 
  650000   0.79117405  -0.16963705   0.85569659    1.1169105    -5.350405    6.2061016    1.9726071 
  660000   0.80438792  -0.16819887    0.8714152    1.1355647   -5.3311345    6.2025497    2.0069799 
  670000   0.80341085   -0.2266737   0.88702566    1.1341854   -5.3157249    6.2027506     2.021211 
  680000   0.79934933  -0.19476982   0.87419911    1.1284517   -5.3279798    6.2021789    2.0026508 
  690000   0.79643477   -0.2122085   0.87932675    1.1243372   -5.3227874    6.2021142    2.0036639 
  700000   0.80924956  -0.13998772   0.87755038     1.142428   -5.3286711    6.2062214    2.0199783 
  710000   0.80014474   -0.2772583   0.87257397    1.1295746   -5.3313081    6.2038821    2.0021485 
  720000    0.8055099  -0.18995996   0.86786551    1.1371486   -5.3363515     6.204217    2.0050141 
  730000   0.80440621 -0.064633554   0.87342559    1.1355905   -5.3311141    6.2045397    2.0090161 
  740000   0.80802876  -0.11284918   0.87501281    1.1407045   -5.3292239    6.2042367    2.0157174 
  750000   0.80431675   -0.1278105   0.86919542    1.1354642    -5.333211    6.2024064    2.0046597 
  760000    0.8073824 -0.096095172   0.87941034    1.1397921    -5.325689    6.2050993    2.0192024 
  770000   0.79617274  -0.16866394   0.88100509    1.1239672   -5.3230542    6.2040593    2.0049723 
  780000   0.80407547  -0.13849978    0.8721243    1.1351236   -5.3282444    6.2003687    2.0072479 
  790000   0.80366757  -0.15864403   0.86997456    1.1345478   -5.3359345    6.2059091    2.0045224 
  800000   0.79907148  -0.14961909   0.86894804    1.1280594   -5.3343423    6.2032903    1.9970075 
  810000   0.80101494  -0.14834642   0.86460467     1.130803   -5.3415298    6.2061345    1.9954077 
  820000   0.80258809  -0.17449943   0.86806094    1.1330239   -5.3365614    6.2046223    2.0010848 
  830000   0.80100755  -0.19407831   0.86268055    1.1307926    -5.338236    6.2009165    1.9934732 
  840000   0.79331209  -0.16115637   0.86762863    1.1199288   -5.3356492    6.2032778    1.9875575 
  850000   0.79166997  -0.19209389   0.86915562    1.1176106   -5.3358831    6.2050387    1.9867662 
  860000   0.79652717  -0.20805358    0.8648609    1.1244676   -5.3404231     6.205284    1.9893285 
  870000   0.79529054  -0.20237263    0.8730304    1.1227218   -5.3319444    6.2049748    1.9957522 
  880000   0.79190039  -0.20204469   0.86463348    1.1179359   -5.3401749    6.2048084    1.9825694 
  890000   0.79988993  -0.11256975   0.86581266    1.1292149   -5.3396578    6.2054705    1.9950275 
  900000   0.79539045 -0.091619951   0.86252567    1.1228629     -5.34269    6.2052157    1.9853885 
  910000   0.80314705  -0.18388794   0.87648847     1.133813   -5.3335282    6.2100167    2.0103014 
  920000   0.80618163  -0.16772011   0.86967488    1.1380969   -5.3382109    6.2078857    2.0077718 
  930000   0.80294311  -0.21283976   0.88147259    1.1335251   -5.3235455    6.2050181    2.0149977 
  940000   0.80126947 -0.064235769   0.85427404    1.1311624   -5.3510217    6.2052957    1.9854364 
  950000    0.7973141  -0.19786321   0.87099221    1.1255785   -5.3353358     6.206328    1.9965707 
  960000   0.80278896  -0.15250967   0.88944521    1.1333075   -5.3143798     6.203825    2.0227527 
  970000   0.80229925 -0.083967978   0.87788111    1.1326161   -5.3268308    6.2047119    2.0104972 
  980000   0.79649916  -0.21312288   0.87328325    1.1244281   -5.3298049    6.2030881    1.9977113 
  990000   0.79324257  -0.22771819   0.86757202    1.1198307   -5.3369169    6.2044889    1.9874027 
 1000000    0.8041863  -0.10634017   0.86108436    1.1352801   -5.3431109    6.2041952    1.9963644 
 1010000   0.80400184  -0.11824692   0.86771796    1.1350197   -5.3356988    6.2034168    2.0027377 
 1020000   0.80012234  -0.13612651   0.88010352    1.1295429    -5.321628    6.2017315    2.0096465 
 1030000   0.81146866  -0.17666895   0.87021042    1.1455607   -5.3354645    6.2056749    2.0157711 
 1040000   0.80214335  -0.19221833    0.8776602     1.132396    -5.326105    6.2037652    2.0100562 
 1050000   0.79860938  -0.11143878   0.87062594    1.1274071   -5.3354407    6.2060666     1.998033 
 1060000   0.79703088  -0.12680279   0.87267896    1.1251787   -5.3302061    6.2028851    1.9978577 
 1070000   0.80146423  -0.10361805   0.86650132    1.1314373   -5.3398513    6.2063526    1.9979386 
 1080000   0.79491203  -0.15683313   0.86801608    1.1221875    -5.339267     6.207283    1.9902036 
 1090000   0.80573134  -0.15126498   0.86300605    1.1374612   -5.3379964    6.2010024    2.0004673 
 1100000   0.80219548  -0.15853042   0.86423378    1.1324696    -5.340036    6.2042698    1.9967034 
 1110000   0.79762644   -0.1094831   0.88171475    1.1260195   -5.3210156    6.2027303    2.0077342 
 1120000   0.80497957  -0.12335923   0.86477562       1.1364   -5.3360199    6.2007955    2.0011756 
 1130000   0.80192096  -0.16006936   0.85585669    1.1320821   -5.3487672    6.2046238    1.9879388 
 1140000   0.80086772  -0.13816066   0.87349647    1.1305952   -5.3303685    6.2038649    2.0040917 
 1150000   0.79596877  -0.16579242   0.87567682    1.1236793   -5.3273938    6.2030707    1.9993561 
 1160000   0.80165424  -0.19521462   0.86321345    1.1317055   -5.3424295     6.205643     1.994919 
 1170000   0.80459003  -0.10201291     0.879263      1.13585   -5.3223436    6.2016066     2.015113 
 1180000   0.79894433  -0.17066537   0.87240199    1.1278799   -5.3312075    6.2036095    2.0002819 
 1190000   0.80892634  -0.11306579   0.87095381    1.1419717   -5.3362695    6.2072233    2.0129255 
 1200000   0.79674858  -0.19765161   0.87459239    1.1247802   -5.3283913    6.2029837    1.9993726 
 1210000   0.80225282   -0.1136876   0.87288782    1.1325506   -5.3333766    6.2062644    2.0054384 
 1220000   0.79517501  -0.11207873   0.86262917    1.1225587   -5.3387838     6.201413    1.9851879 
 1230000    0.8061099  -0.13733862   0.87976898    1.1379957    -5.329547     6.209316    2.0177647 
 1240000   0.80267302 -0.084248296   0.87605828    1.1331438   -5.3302804    6.2063387    2.0092021 
 1250000   0.79493146  -0.17999836   0.86195166    1.1222149   -5.3435515    6.2055032    1.9841666 
 1260000   0.79644904  -0.15645315    0.8715243    1.1243573   -5.3342062    6.2057305    1.9958816 
 1270000   0.80003585  -0.17652297   0.87902146    1.1294208   -5.3281105     6.207132    2.0084423 
 1280000   0.80522282  -0.15666675   0.86057663    1.1367434   -5.3422632    6.2028399      1.99732 
 1290000   0.80009557  -0.19133203   0.87284194    1.1295052   -5.3310285    6.2038704    2.0023471 
 1300000   0.80928943  -0.14487777   0.87479287    1.1424843   -5.3307812    6.2055741    2.0172771 
 1310000     0.804694 -0.097753983   0.87001464    1.1359968   -5.3384694     6.208484    2.0060115 
 1320000   0.79474139  -0.20896592   0.86461771    1.1219466   -5.3339068    6.1985245    1.9865643 
 1330000   0.79839779  -0.12353078   0.87629467    1.1271084   -5.3255699    6.2018646    2.0034031 
 1340000   0.79703834 -0.093153622   0.87438557    1.1251892   -5.3277193    6.2021049    1.9995748 
 1350000   0.80723937  -0.07884149   0.85927852    1.1395901   -5.3424103    6.2016888    1.9988687 
 1360000   0.80236921 -0.080792052   0.87070143    1.1327149   -5.3302646     6.200966    2.0034163 
 1370000   0.79803626  -0.14077576   0.87080705     1.126598   -5.3318107    6.2026177     1.997405 
 1380000   0.79915186  -0.15407936   0.86722369    1.1281729   -5.3329296    6.2001533    1.9953966 
 1390000   0.80025187  -0.23689862   0.86849117    1.1297258   -5.3317428     6.200234     1.998217 
 1400000   0.79981073  -0.13103915    0.8693918     1.129103    -5.332297    6.2016888    1.9984948 
 1410000   0.80274745  -0.14069341   0.87262152    1.1332488   -5.3299609    6.2025824    2.0058704 
 1420000    0.8015061  -0.19675728   0.86485356    1.1314964   -5.3385929    6.2034464      1.99635 
 1430000   0.80196236  -0.21660957   0.86711493    1.1321405   -5.3356161     6.202731    1.9992555 
 1440000   0.79468261  -0.17518663   0.88397968    1.1218636   -5.3199097    6.2038894    2.0058433 
 1450000   0.80799929  -0.17173321   0.86756278    1.1406629   -5.3358411    6.2034039    2.0082257 
 1460000   0.79943284  -0.18632142   0.87303628    1.1285696   -5.3327498    6.2057861    2.0016059 
 1470000   0.79709769  -0.17164304   0.86150307     1.125273   -5.3410058    6.2025089    1.9867761 
 1480000   0.80488825  -0.11815381   0.88138411     1.136271   -5.3256654    6.2070495    2.0176552 
 1490000   0.79801014  -0.11132762   0.87031687    1.1265611   -5.3314157    6.2017325     1.996878 
 1500000   0.80180598  -0.20241647   0.87828412    1.1319198   -5.3282747    6.2065588    2.0102039 
 1510000   0.80531093  -0.19241409   0.87022794    1.1368678   -5.3346628    6.2048907    2.0070957 
 1520000   0.78851529 -0.088641987   0.87045657    1.1131571   -5.3328261    6.2032826    1.9836137 
 1530000   0.79736031  -0.14608803   0.85540925    1.1256438   -5.3462705    6.2016798     1.981053 
 1540000   0.80332212  -0.18010858   0.88644998    1.1340601   -5.3202941    6.2067441    2.0205101 
 1550000   0.80254082  -0.12436384   0.85843129    1.1329572   -5.3452188    6.2036501    1.9913884 
 1560000   0.80205923  -0.17617302   0.86613863    1.1322773   -5.3362228    6.2023615    1.9984159 
 1570000   0.79720384  -0.15315828   0.86337174    1.1254229   -5.3415393    6.2049111    1.9887946 
 1580000   0.79874594  -0.13874462   0.86623033    1.1275999   -5.3394188    6.2056491    1.9938302 
 1590000   0.79675845 -0.095668335   0.89028981    1.1247941    -5.316912    6.2072018    2.0150839 
 1600000   0.80036237   -0.1140487   0.86826837    1.1298818   -5.3375364    6.2058048    1.9981502 
 1610000    0.7990366   -0.1272848   0.88265594    1.1280102   -5.3212117    6.2038677    2.0106661 
 1620000   0.80476212  -0.14116631   0.86329684     1.136093    -5.342033    6.2053298    1.9993898 
 1630000   0.80130351  -0.22439146   0.87624271    1.1312104   -5.3298867    6.2061294    2.0074531 
 1640000   0.80675056  -0.20438465     0.876674    1.1389001   -5.3271185    6.2037925    2.0155741 
 1650000   0.79706005  -0.11459428   0.85713353    1.1252199   -5.3489836    6.2061172    1.9823534 
 1660000   0.79962039  -0.18226588   0.87226402    1.1288343   -5.3307647    6.2030287    2.0010984 
 1670000   0.79693228  -0.13612531   0.86016782    1.1250395   -5.3456667    6.2058345    1.9852073 
 1680000   0.80379869  -0.16391827   0.85723934    1.1347329   -5.3465705    6.2038098    1.9919722 
 1690000   0.80331321  -0.11758188    0.8808757    1.1340475   -5.3268803     6.207756    2.0149232 
 1700000   0.80404584  -0.17521612   0.86180635    1.1350818   -5.3449051    6.2067114    1.9968882 
 1710000   0.79990935  -0.15363844   0.87007183    1.1292423   -5.3365469    6.2066187    1.9993141 
 1720000     0.798256  -0.12642186   0.86853965    1.1269082   -5.3323704    6.2009101    1.9954479 
 1730000    0.8009757 -0.068559714    0.8742436    1.1307477   -5.3277775    6.2020211    2.0049913 
 1740000   0.79395406  -0.15135052   0.87720207    1.1208351   -5.3265842    6.2037863    1.9980372 
 1750000   0.79816705  -0.15338089     0.865655    1.1267826   -5.3393707    6.2050257    1.9924376 
 1760000   0.79780529  -0.12024067   0.85681523    1.1262719   -5.3455693    6.2023846    1.9830872 
 1770000   0.80049223  -0.21265137   0.86626946    1.1300651   -5.3388511    6.2051205    1.9963346 
 1780000   0.79750975 -0.078344922   0.86703528    1.1258547   -5.3364126    6.2034478      1.99289 
 1790000   0.79681374 -0.035890437   0.87477079    1.1248722   -5.3323012    6.2070719     1.999643 
 1800000   0.80258415  -0.13530138   0.85284869    1.1330183   -5.3495665    6.2024152     1.985867 
 1810000   0.80624407  -0.11406902   0.86761435    1.1381851   -5.3347809    6.2023952    2.0057994 
 1820000   0.80497141  -0.17297688   0.86138152    1.1363885   -5.3406821    6.2020636      1.99777 
 1830000   0.79891375  -0.17874407   0.87777479    1.1278368   -5.3269372     6.204712    2.0056116 
 1840000   0.80272124  -0.18220824   0.86802102    1.1332119    -5.336153     6.204174    2.0012329 
 1850000   0.80247241 -0.068695308   0.87312451    1.1328606    -5.330626    6.2037505    2.0059851 
 1860000   0.80527058  -0.15885881   0.86704479    1.1368108   -5.3350907    6.2021355    2.0038556 
 1870000   0.79665673  -0.18897635   0.86521011    1.1246505   -5.3368505    6.2020606    1.9898606 
 1880000   0.80313699   -0.1568722   0.85382819    1.1337988   -5.3511231    6.2049512     1.987627 
 1890000   0.80167607  -0.11828457   0.86770754    1.1317364   -5.3370992    6.2048067    1.9994439 
 1900000   0.80378126  -0.18027057   0.84602223    1.1347083   -5.3552113    6.2012335    1.9807305 
 1910000   0.79693604  -0.14068631   0.85237344    1.1250448   -5.3489935     6.201367    1.9774182 
 1920000   0.80858473  -0.13379559   0.85292518    1.1414894   -5.3525177    6.2054429    1.9944146 
 1930000    0.7948755  -0.20783273   0.86731405    1.1221359   -5.3396088    6.2069228      1.98945 
 1940000   0.80150258   -0.1577822   0.88251575    1.1314915   -5.3238729    6.2063887    2.0140072 
 1950000   0.80174288   -0.1495818   0.87121508    1.1318307   -5.3337679     6.204983    2.0030458 
 1960000   0.79699281  -0.16768167   0.87184668     1.125125    -5.334571    6.2064177    1.9969716 
 1970000   0.79863241   -0.1433868   0.85908878    1.1274396   -5.3446394    6.2037282    1.9865284 
 1980000   0.79700159  -0.17153939   0.86171104    1.1251373   -5.3417975    6.2035086    1.9868484 
 1990000   0.80214173  -0.14711642   0.87985106    1.1323938   -5.3252289    6.2050799    2.0122448 
 2000000   0.79477427  -0.14045487   0.87596072     1.121993   -5.3291278    6.2050885    1.9979537 
 2010000   0.80523784  -0.14166275     0.866271    1.1367646    -5.336102     6.202373    2.0030356 
 2020000   0.80114842 -0.093106659   0.86759738    1.1309915   -5.3365346     6.204132    1.9985889 
 2030000   0.80061013  -0.10775661   0.86659222    1.1302316   -5.3363217    6.2029139    1.9968238 
 2040000   0.79526681  -0.17565183   0.85946139    1.1226883   -5.3445885    6.2040499    1.9821497 
 2050000   0.79502403  -0.10062117   0.84505882    1.1223456    -5.358652    6.2037108    1.9674044 
 2060000   0.80380184  -0.14722814   0.86791399    1.1347373   -5.3384501    6.2063641    2.0026513 
 2070000   0.79681013  -0.16856497   0.85296842    1.1248671    -5.351751    6.2047195    1.9778355 
 2080000   0.79995748  -0.11046202   0.87505897    1.1293102   -5.3310571    6.2061161    2.0043692 
 2090000   0.80320418  -0.13115886     0.856605    1.1338936   -5.3485105    6.2051155    1.9904986 
 2100000   0.80211523  -0.10083434    0.8655308    1.1323563   -5.3382547    6.2037855    1.9978871 
 2110000   0.80280783  -0.10663374   0.87175183    1.1333341   -5.3338101    6.2055619    2.0050859 
 2120000   0.79652854  -0.13501451   0.86889813    1.1244695   -5.3383514    6.2072496    1.9933677 
 2130000   0.79822129  -0.15756859   0.85463211    1.1268592   -5.3513508    6.2059829    1.9814913 
 2140000   0.79996649  -0.15258392   0.85770254    1.1293229   -5.3468551    6.2045576    1.9870255 
 2150000   0.79913109  -0.20143249   0.87123509    1.1281436   -5.3324667    6.2037018    1.9993787 
 2160000   0.79787845  -0.18914347   0.84356209    1.1263752   -5.3598034    6.2033655    1.9699373 
 2170000   0.79865892   -0.1917879   0.87103148     1.127477   -5.3325741    6.2036056    1.9985085 
 2180000   0.80070432  -0.14233778    0.8685921    1.1303645    -5.331511    6.2001031    1.9989566 
 2190000   0.80081267    -0.133776   0.85671195    1.1305175   -5.3445781    6.2012901    1.9872295 
 2200000   0.79866454  -0.14182716       0.8672     1.127485   -5.3352836    6.2024836     1.994685 
 2210000   0.80150247  -0.21518763   0.88810934    1.1314913   -5.3185421    6.2066515    2.0196006 
 2220000   0.80111784  -0.19429464   0.87827926    1.1309483   -5.3242674    6.2025467    2.0092276 
 2230000   0.80365361  -0.14924539   0.88122784    1.1345281   -5.3238153    6.2050431    2.0157559 
 2240000   0.80725159  -0.10644473   0.85996215    1.1396074   -5.3436681    6.2036302    1.9995695 
 2250000   0.79540428 -0.076087371   0.86616334    1.1228824   -5.3359922    6.2021555    1.9890457 
 2260000   0.80005171  -0.10980367    0.8780369    1.1294432   -5.3265375    6.2045744    2.0074801 
 2270000   0.79868343  -0.13680202   0.85944869    1.1275116   -5.3453708    6.2048195    1.9869603 
 2280000   0.79332884  -0.16660787   0.87183773    1.1199525    -5.332847    6.2046847    1.9917902 
 2290000   0.79298297  -0.12134443   0.86974514    1.1194642    -5.331933    6.2016781    1.9892094 
 2300000   0.80603003  -0.16985632   0.87408654    1.1378829   -5.3325296    6.2066161    2.0119694 
 2310000   0.80192057   -0.1641374    0.8534756    1.1320815   -5.3497479    6.2032235    1.9855571 
 2320000   0.80843434  -0.11758394   0.84718634    1.1412771   -5.3575192    6.2047055    1.9884635 
 2330000   0.80122347 -0.099475013   0.87785765    1.1310974   -5.3272702    6.2051278    2.0089551 
 2340000   0.80094703  -0.18254937   0.86283902    1.1307072    -5.343404     6.206243    1.9935462 
 2350000   0.80540902  -0.10741033   0.87387196    1.1370062   -5.3312265    6.2050985    2.0108782 
 2360000   0.79651303   -0.1029375   0.87200278    1.1244476   -5.3307802     6.202783    1.9964504 
 2370000    0.8054346  -0.11741959   0.86622853    1.1370423   -5.3360192    6.2022477    2.0032709 
 2380000   0.80340611  -0.10903045   0.86917513    1.1341787   -5.3391212    6.2082963    2.0033538 
 2390000   0.79548042  -0.12227565   0.87761686    1.1229899   -5.3259675    6.2035844    2.0006068 
 2400000   0.80091988  -0.15486534   0.87077168    1.1306688   -5.3329991    6.2037708    2.0014405 
 2410000    0.7943688  -0.16184263   0.85756215    1.1214206   -5.3479495    6.2055117    1.9789828 
 2420000   0.80220234  -0.18840586   0.86486824    1.1324793   -5.3381854    6.2030536    1.9973476 
 2430000   0.80045021  -0.11465799   0.88365883    1.1300058   -5.3213362     6.204995    2.0136646 
 2440000   0.79811046  -0.17928549   0.85982897    1.1267028   -5.3423589    6.2021879    1.9865317 
 2450000     0.803077  -0.20380911   0.85120807    1.1337141   -5.3534357    6.2046438    1.9849222 
 2460000   0.80382345  -0.19452419   0.86060798    1.1347679   -5.3424823    6.2030903    1.9953758 
 2470000   0.79594305 -0.096553152   0.87815113     1.123643   -5.3275701    6.2057213    2.0017941 
 2480000   0.80532172  -0.13864956   0.86804488     1.136883   -5.3356944    6.2037392    2.0049279 
 2490000   0.80102411  -0.17595729   0.87507054     1.130816   -5.3300233    6.2050938    2.0058865 
 2500000    0.7969987  -0.22176229   0.86152812    1.1251333   -5.3426953    6.2042234    1.9866614 
 2510000   0.79860584  -0.15963739    0.8709428    1.1274021   -5.3322525    6.2031953    1.9983449 
 2520000   0.80410665  -0.08617931   0.86917599    1.1351677   -5.3337117    6.2028877    2.0043436 
 2530000   0.80855333  -0.14211407   0.86911029    1.1414451   -5.3367244    6.2058347    2.0105554 
 2540000   0.79400639  -0.12315124   0.87592329     1.120909     -5.33295    6.2088733    1.9968323 
 2550000   0.80889689  -0.18937455   0.87837282    1.1419301   -5.3236807    6.2020535    2.0203029 
 2560000   0.79955117   -0.1422299   0.87258092    1.1287366   -5.3309012    6.2034822    2.0013175 
 2570000    0.8086293  -0.16736053   0.87049833    1.1415523   -5.3326902    6.2031885    2.0120507 
 2580000   0.79826562  -0.17207351   0.86428652    1.1269218   -5.3412625     6.205549    1.9912083 
 2590000   0.79965584  -0.12258182   0.87141961    1.1288844   -5.3323804       6.2038     2.000304 
 2600000   0.80088747  -0.14651568   0.85233431    1.1306231   -5.3531294    6.2054637    1.9829574 
 2610000   0.79063768  -0.17486978   0.87489055    1.1161533   -5.3310434    6.2059339    1.9910439 
 2620000   0.80023819  -0.14843801   0.86804098    1.1297065   -5.3365634    6.2046044    1.9977475 
 2630000   0.80581548  -0.15207087   0.87237707      1.13758   -5.3321477    6.2045248    2.0099571 
 2640000   0.79938101  -0.15372036    0.8592691    1.1284964   -5.3450965    6.2043656    1.9877655 
 2650000   0.80101855  -0.06067954   0.84629147    1.1308081   -5.3576143    6.2039057    1.9770996 
 2660000   0.79922972  -0.12371948   0.87583829    1.1282828   -5.3313501    6.2071884    2.0041211 
 2670000   0.80356869  -0.16606074   0.87352474    1.1344082   -5.3307783     6.204303    2.0079329 
 2680000   0.80560983 -0.078516569   0.87408364    1.1372897   -5.3291283     6.203212    2.0113734 
 2690000   0.79432717   -0.1647329   0.86398656    1.1213618   -5.3395402    6.2035268    1.9853484 
 2700000   0.79699463   -0.1324725   0.86923398    1.1251275   -5.3361826    6.2054166    1.9943615 
 2710000   0.79325428 -0.056302862   0.86556167    1.1198472   -5.3406936    6.2062553    1.9854089 
 2720000   0.79942162  -0.17368654     0.872319    1.1285537   -5.3327734    6.2050925    2.0008727 
 2730000   0.79990747 -0.093388822   0.87775671    1.1292396   -5.3253073     6.203064    2.0069963 
 2740000    0.8023702   -0.1994391   0.86128963    1.1327163    -5.337842    6.1991317    1.9940059 
 2750000   0.80580667  -0.11482971   0.86573511    1.1375676   -5.3406632    6.2063983    2.0033027 
 2760000   0.80023189  -0.17985554   0.87489888    1.1296976   -5.3320055    6.2069044    2.0045965 
 2770000   0.79551633  -0.16301143   0.87869717    1.1230406    -5.325448    6.2041451    2.0017378 
 2780000   0.80008917  -0.20431453   0.86093209    1.1294961   -5.3444546    6.2053866    1.9904282 
 2790000   0.80255464  -0.15591926   0.85645038    1.1329767   -5.3449927    6.2014431     1.989427 
 2800000   0.79860679  -0.10501053     0.868891    1.1274034   -5.3340939    6.2029848    1.9962944 
 2810000    0.8004636  -0.13248441   0.84400808    1.1300247   -5.3606804    6.2046885    1.9740328 
 2820000   0.80144273   -0.1152136   0.85434057     1.131407   -5.3493101    6.2036507    1.9857475 
 2830000   0.79973391  -0.14819764   0.85242812    1.1289946   -5.3527737    6.2052018    1.9814227 
 2840000   0.79872655  -0.15734747   0.85705101    1.1275725   -5.3505684    6.2076194    1.9846235 
 2850000   0.79854953   -0.1158122   0.86534742    1.1273226   -5.3380743    6.2034217      1.99267 
 2860000   0.80117656  -0.18708768   0.86450211    1.1310312   -5.3415651    6.2060672    1.9955333 
 2870000   0.79502836  -0.13042476   0.87833427    1.1223517    -5.327027    6.2053613     2.000686 
 2880000   0.79388986  -0.20535407   0.84370995    1.1207445   -5.3558099    6.1995198    1.9644544 
 2890000   0.79480939   -0.1427211   0.85403968    1.1220426   -5.3499754    6.2040151    1.9760823 
 2900000   0.79599717  -0.15464403   0.86546143    1.1237194   -5.3384828    6.2039442    1.9891808 
 2910000   0.80467065 -0.097345562   0.84289822    1.1359639   -5.3584106    6.2013088    1.9788621 
 2920000   0.80170724  -0.17344144   0.86018794    1.1317804   -5.3446453    6.2048333    1.9919683 
 2930000   0.80195938 -0.077293401   0.84764827    1.1321363   -5.3565883    6.2042365    1.9797846 
 2940000   0.80236328  -0.12442583   0.85751763    1.1327065   -5.3472277    6.2047453    1.9902242 
 2950000   0.79896247  -0.19081593   0.85308806    1.1279055   -5.3501875    6.2032755    1.9809936 
 2960000   0.80049461  -0.15254922    0.8495574    1.1300685   -5.3526767    6.2022341    1.9796259 
 2970000   0.79714899  -0.10997892   0.84626118    1.1253454    -5.358023    6.2042842    1.9716066 
 2980000   0.79335044  -0.15667705   0.86912397     1.119983   -5.3329706    6.2020945     1.989107 
 2990000   0.79837367  -0.21012132   0.85413731    1.1270743   -5.3488579    6.2029953    1.9812116 
 3000000   0.80211566 -0.072654399   0.86633139    1.1323569   -5.3396743    6.2060057    1.9986883 
 3010000   0.80098777   -0.1356068    0.8673613    1.1307647   -5.3390454    6.2064067     1.998126 
 3020000    0.8018297  -0.16196376    0.8601165    1.1319533   -5.3448239    6.2049404    1.9920698 
 3030000   0.80189503  -0.14961618   0.86675778    1.1320455   -5.3409495    6.2077073    1.9988033 
 3040000   0.79950187  -0.12015364   0.85290521     1.128667   -5.3500474    6.2029526    1.9815722 
 3050000   0.80299606  -0.12180489   0.87100159    1.1335998   -5.3355813    6.2065829    2.0046014 
 3060000   0.80003133  -0.10719164   0.86950704    1.1294145   -5.3348397    6.2043468    1.9989215 
 3070000   0.80446416   -0.1297788   0.86354161    1.1356723   -5.3454836    6.2090253     1.999214 
 3080000   0.79862968 -0.086724684   0.86599731    1.1274357   -5.3383696    6.2043669    1.9934331 
 3090000   0.80288574  -0.16020285   0.85017737    1.1334441   -5.3519024    6.2020797    1.9836214 
 3100000   0.79714397 -0.072559006   0.85142415    1.1253384   -5.3499115    6.2013356    1.9767625 
 3110000   0.80093318   -0.1401815   0.84985788    1.1306876   -5.3504303    6.2002882    1.9805455 
 3120000   0.80109322 -0.084816963   0.86486987    1.1309136   -5.3403484    6.2052183    1.9957834 
 3130000   0.80046407  -0.17851342   0.86601116    1.1300254   -5.3379001    6.2039113    1.9960365 
 3140000   0.78853481  -0.10433822   0.87025448    1.1131847   -5.3362492    6.2065037    1.9834392 
 3150000   0.80351581   -0.2102401   0.87521395    1.1343336   -5.3330818    6.2082958    2.0095475 
 3160000   0.80071019  -0.14760991   0.86487769    1.1303728   -5.3354191    6.2002968    1.9952505 
 3170000   0.80108933  -0.16564146   0.86464789    1.1309081   -5.3413432    6.2059911     1.995556 
 3180000   0.79743841  -0.15413809   0.86274645     1.125754   -5.3387046     6.201451    1.9885005 
 3190000   0.80326732  -0.18296506   0.87443452    1.1339828    -5.329105    6.2035395    2.0084173 
 3200000   0.79458954  -0.17631482   0.86353541    1.1217322   -5.3409435    6.2044789    1.9852676 
 3210000    0.7994487  -0.20498985   0.85600507     1.128592   -5.3470127    6.2030177     1.984597 
 3220000   0.80096931  -0.10607907   0.85312721    1.1307386   -5.3495045    6.2026317    1.9838658 
 3230000   0.80271411  -0.15368888   0.85820688    1.1332018   -5.3475334    6.2057403    1.9914087 
 3240000   0.80230255  -0.15076392   0.86233941    1.1326208   -5.3416876     6.204027    1.9949602 
 3250000   0.80330858  -0.13583293   0.86322971     1.134041   -5.3412201    6.2044498    1.9972707 
 3260000   0.80205813  -0.16508035   0.86205055    1.1322757   -5.3458675     6.207918    1.9943263 
 3270000   0.79974086  -0.14207899   0.85923096    1.1290044   -5.3452662    6.2044971    1.9882354 
 3280000   0.80101272  -0.18069393   0.86825288    1.1307999   -5.3337025    6.2019554    1.9990528 
 3290000   0.79617671  -0.10054719   0.87610779    1.1239729   -5.3268913     6.202999    2.0000806 
 3300000   0.79833815  -0.11972907   0.87315436    1.1270242   -5.3322493    6.2054036    2.0001786 
 3310000   0.80082745  -0.20963679   0.86865243    1.1305384   -5.3368855    6.2055379    1.9991908 
 3320000   0.79927899  -0.13483037   0.86988924    1.1283524   -5.3342993    6.2041885    1.9982416 
 3330000    0.8037149 -0.089754701   0.87096661    1.1346146   -5.3365951    6.2075617    2.0055812 
 3340000   0.79654223    -0.198972   0.87024134    1.1244889   -5.3342656     6.204507    1.9947302 
 3350000   0.79943675 -0.088322224   0.86082107    1.1285751   -5.3427419    6.2035629    1.9893962 
 3360000   0.80391138 -0.095926334    0.8581746     1.134892   -5.3456574     6.203832    1.9930666 
 3370000   0.79975494 -0.087295969   0.86165471    1.1290243   -5.3412019    6.2028566     1.990679 
 3380000   0.79977536  -0.14146305   0.85626713    1.1290531   -5.3478333    6.2041004    1.9853202 
 3390000   0.80579837  -0.10318932   0.86376996    1.1375559   -5.3405759    6.2043459    2.0013258 
 3400000   0.80668359  -0.12483591   0.86385233    1.1388056   -5.3385465    6.2023988    2.0026579 
 3410000   0.79901231  -0.19687714   0.86168967    1.1279759   -5.3435253     6.205215    1.9896656 
 3420000   0.79558656  -0.20065056   0.86337783    1.1231397   -5.3398656    6.2032435    1.9865176 
 3430000     0.797672  -0.12042064   0.86762612    1.1260838   -5.3348065    6.2024326    1.9937099 
 3440000   0.79668004 -0.078116207   0.86358926    1.1246834   -5.3409035    6.2044927    1.9882727 
 3450000   0.80450837  -0.10113733   0.86560438    1.1357348   -5.3366503    6.2022546    2.0013391 
 3460000   0.79710662  -0.18278098   0.87979877    1.1252856   -5.3224583    6.2022571    2.0050844 
 3470000   0.80659038  -0.13713942   0.87121178     1.138674   -5.3338289    6.2050407    2.0098858 
 3480000   0.79581488  -0.10596895   0.86654582     1.123462    -5.338315    6.2048608    1.9900079 
 3490000   0.79869641  -0.11633692   0.84728323    1.1275299    -5.356378    6.2036612    1.9748132 
 3500000     0.801733  -0.13103694   0.87413839    1.1318167   -5.3331181    6.2072565    2.0059551 
 3510000   0.79550108  -0.14834887   0.86305169    1.1230191   -5.3366511    6.1997028    1.9860708 
 3520000    0.8003037  -0.11533268   0.85096548     1.129799   -5.3513965     6.202362    1.9807645 
 3530000   0.80563064  -0.16439671   0.85541799    1.1373191   -5.3511938    6.2066118    1.9927371 
 3540000   0.80085465  -0.18288957   0.86174377    1.1305768   -5.3419299    6.2036737    1.9923205 
 3550000   0.79780016  -0.13711543   0.86801744    1.1262647   -5.3379905    6.2060079    1.9942821 
 3560000   0.79982521  -0.15312323   0.87094139    1.1291235   -5.3353229    6.2062643    2.0000649 
 3570000   0.80234038  -0.18835576   0.84977169    1.1326742   -5.3538812    6.2036529    1.9824459 
 3580000   0.80666462  -0.15199479   0.87624514    1.1387788   -5.3295476    6.2057927    2.0150239 
 3590000   0.80041287  -0.14196768    0.8640531    1.1299531   -5.3385701    6.2026232    1.9940062 
 3600000   0.78842264  -0.12758715   0.85488114    1.1130263    -5.351373    6.2062541    1.9679075 
 3610000   0.80192847  -0.13070887   0.85018631    1.1320927   -5.3530647    6.2032511     1.982279 
 3620000   0.79947785  -0.10685697   0.86164906    1.1286331   -5.3405361    6.2021851    1.9902822 
 3630000   0.80081709  -0.15848548   0.85030048    1.1305237   -5.3534203    6.2037207    1.9808242 
 3640000   0.80102057  -0.18194276   0.87096987     1.130811   -5.3325783    6.2035481    2.0017809 
 3650000   0.79671982   -0.1583166   0.86036642    1.1247396   -5.3416408    6.2020073     1.985106 
 3660000   0.79544506 -0.068932881    0.8538723      1.12294   -5.3488766    6.2027489    1.9768123 
 3670000   0.80205165  -0.17498913   0.86626671    1.1322666    -5.337088    6.2033547    1.9985333 
 3680000   0.80087339  -0.13044048   0.85601964    1.1306032   -5.3483494    6.2043691    1.9866229 
 3690000   0.79893875  -0.11577537   0.85783535    1.1278721   -5.3454345    6.2032698    1.9857074 
 3700000    0.7909499  -0.15357231   0.86501733    1.1165941   -5.3389657     6.203983    1.9816114 
 3710000   0.80652087   -0.2155433   0.86325055    1.1385758   -5.3395778    6.2028283    2.0018264 
 3720000   0.80481133 -0.084161637   0.86141324    1.1361625   -5.3447811    6.2061943    1.9975757 
 3730000   0.80009967  -0.22397148   0.86174353     1.129511    -5.341427    6.2031706    1.9912545 
 3740000   0.79021264  -0.13884691   0.86227648    1.1155533   -5.3427459    6.2050224    1.9778298 
 3750000    0.7929013  -0.18952049   0.87171461    1.1193489   -5.3334473    6.2051619    1.9910635 
 3760000   0.79845155  -0.09373705   0.87667108    1.1271843   -5.3300326    6.2067036    2.0038553 
 3770000   0.79775427  -0.14300954   0.85764198    1.1261999   -5.3467095    6.2043515    1.9838419 
 3780000   0.80145084  -0.16529539   0.86339369    1.1314184   -5.3393253     6.202719    1.9948121 
 3790000   0.79930369  -0.18068041   0.85635322    1.1283873   -5.3494681    6.2058213    1.9847405 
 3800000   0.80097005 -0.098136378   0.85726191    1.1307397   -5.3477515    6.2050134    1.9880016 
 3810000    0.7983127  -0.15130874   0.85391537    1.1269883   -5.3548124    6.2087278    1.9809036 
 3820000   0.79824595  -0.15635947   0.87937124     1.126894   -5.3234559    6.2028271    2.0062653 
 3830000   0.80296718  -0.19501704   0.85230707     1.133559    -5.347768     6.200075    1.9858661 
 3840000   0.80432807  -0.14461669   0.85576399    1.1354802   -5.3490432    6.2048072    1.9912442 
 3850000   0.80551686  -0.14802917   0.87553884    1.1371585   -5.3320114    6.2075502    2.0126973 
 3860000   0.79704941  -0.25229888   0.85822012    1.1252049   -5.3452161    6.2034362     1.983425 
 3870000   0.80185838  -0.20365472   0.84798823    1.1319937   -5.3581745    6.2061627     1.979982 
 3880000   0.79719443  -0.15987886    0.8643135    1.1254096   -5.3429128    6.2072263    1.9897231 
 3890000   0.80242698 -0.074381528   0.86488136    1.1327964   -5.3404018    6.2052832    1.9976778 
 3900000   0.79794601   -0.1858962    0.8439351    1.1264706    -5.360767    6.2047021    1.9704057 
 3910000   0.79879299  -0.16036938   0.86593955    1.1276663    -5.337969    6.2039086    1.9936058 
 3920000   0.79811832  -0.14711227   0.84684174    1.1267138   -5.3569019    6.2037436    1.9735556 
 3930000   0.79936012  -0.13964515   0.85895853    1.1284669   -5.3452327    6.2041912    1.9874254 
 3940000   0.79433103  -0.17065401   0.85957686    1.1213673   -5.3421469    6.2017238    1.9809441 
 3950000   0.80613984 -0.039800364   0.85853342    1.1380379   -5.3433723    6.2019057    1.9965714 
 3960000   0.79680728  -0.13622823   0.86258094     1.124863   -5.3394321     6.202013     1.987444 
 3970000   0.80456588  -0.18236592   0.85828336    1.1358159    -5.342529    6.2008123    1.9940993 
 3980000    0.7983258  -0.13912875   0.86476911    1.1270068   -5.3405675    6.2053366    1.9917759 
 3990000   0.80224647  -0.17406813   0.84509734    1.1325416   -5.3594058    6.2045032     1.977639 
 4000000   0.79966189  -0.15438268   0.86453523    1.1288929    -5.339461    6.2039962    1.9934282 
 4010000   0.79536041  -0.13370085   0.86156038    1.1228205   -5.3421506     6.203711    1.9843808 
 4020000    0.8027701  -0.14729639   0.85390064    1.1332808   -5.3471235    6.2010241    1.9871815 
 4030000    0.8090782  -0.13111891   0.86915532    1.1421861   -5.3375625    6.2067178    2.0113414 
 4040000    0.8048545  -0.14714726   0.85920598    1.1362234   -5.3426089    6.2018149    1.9954294 
 4050000   0.79560008  -0.13068997    0.8629622    1.1231588   -5.3356193    6.1985815     1.986121 
 4060000   0.80625194  -0.13083984   0.86053311    1.1381962   -5.3449387    6.2054718    1.9987293 
 4070000   0.79702899  -0.15207037   0.84895478     1.125176   -5.3575711    6.2065259    1.9741308 
 4080000    0.8005064  -0.14653736   0.85555461    1.1300851   -5.3472445    6.2027991    1.9856397 
 4090000   0.79759751  -0.20011754   0.86010566    1.1259786   -5.3428225    6.2029282    1.9860843 
 4100000   0.79493544   -0.2273274   0.85003683    1.1222205   -5.3530696    6.2031064    1.9722574 
 4110000   0.79845541  -0.17699943   0.86179658    1.1271897   -5.3461398    6.2079364    1.9889863 
 4120000    0.8025432   -0.1575257   0.86204483    1.1329605   -5.3440926    6.2061374    1.9950053 
 4130000   0.79560924  -0.20139212    0.8511359    1.1231717   -5.3514209    6.2025568    1.9743076 
 4140000   0.80007488  -0.19683779   0.86668385     1.129476   -5.3355544    6.2022382    1.9961598 
 4150000   0.79976747 -0.081863191   0.86161306     1.129042   -5.3434043    6.2050173     1.990655 
 4160000   0.80406668   -0.1702273   0.86029604    1.1351112    -5.345563     6.205859    1.9954073 
 4170000   0.79671979  -0.19697185   0.86768006    1.1247395   -5.3368941    6.2045742    1.9924196 
 4180000   0.80431533 -0.091133715   0.86444459    1.1354622   -5.3381715    6.2026161    1.9999068 
 4190000    0.7999627  -0.13110062   0.86849326    1.1293176   -5.3348117     6.203305    1.9978108 
 4200000   0.79931999  -0.12696376   0.86415671    1.1284103   -5.3419952    6.2061519     1.992567 
 4210000   0.79864354  -0.14853583   0.84988408    1.1274553   -5.3541737    6.2040577    1.9773394 
 4220000   0.78991142  -0.14429638   0.86276283    1.1151281   -5.3395882     6.202351    1.9778909 
 4230000   0.80870539  -0.16701966   0.86890364    1.1416598   -5.3349214     6.203825    2.0105634 
 4240000   0.80254564  -0.14720669   0.84410184    1.1329639    -5.359112    6.2032139    1.9770658 
 4250000   0.79502652  -0.17154273   0.83534077    1.1223491    -5.365655    6.2009957    1.9576899 
 4260000   0.80208526  -0.12446704    0.8611965     1.132314   -5.3440321    6.2052286    1.9935105 
 4270000   0.79963991  -0.22028078   0.86740003    1.1288619   -5.3365874    6.2039875    1.9962619 
 4280000     0.798801  -0.16894259   0.86138664    1.1276776   -5.3427547    6.2041413    1.9890642 
 4290000   0.80298405  -0.24409546   0.87705983    1.1335829   -5.3257419    6.2028018    2.0106427 
 4300000   0.80291831  -0.06335478   0.85952165    1.1334901   -5.3456927    6.2052143    1.9930117 
 4310000   0.79848427  -0.11703813   0.84889812    1.1272305   -5.3527264    6.2016245    1.9761286 
 4320000   0.80069726  -0.15950214   0.85701002    1.1303546   -5.3485847    6.2055948    1.9873646 
 4330000   0.79042433  -0.12250679   0.85659051    1.1158522   -5.3499618    6.2065523    1.9724427 
 4340000   0.79520189  -0.11144911   0.85854212    1.1225967   -5.3480237    6.2065659    1.9811388 
 4350000   0.80260467  -0.15645355   0.85215855    1.1330473   -5.3527496    6.2049082    1.9852058 
 4360000   0.80010551  -0.14462479    0.8639519    1.1295192   -5.3390758    6.2030277    1.9934711 
 4370000   0.79985377 -0.079766149   0.86307239    1.1291638   -5.3415668    6.2046392    1.9922362 
 4380000   0.79360173  -0.17235841   0.87264859    1.1203377   -5.3331206    6.2057692    1.9929863 
 4390000   0.80331275  -0.10335156   0.86387715    1.1340469   -5.3386163    6.2024935    1.9979241 
 4400000   0.79585494  -0.20650265   0.86542891    1.1235186   -5.3404725    6.2059014    1.9889475 
 4410000   0.80426196  -0.15969927   0.87955051    1.1353869   -5.3258875     6.205438    2.0149374 
 4420000    0.8029711  -0.13673037   0.86534473    1.1335646    -5.334604    6.1999487    1.9989093 
 4430000    0.8024258 -0.086885183   0.85364986    1.1327948   -5.3497258    6.2033757    1.9864446 
 4440000   0.80186516  -0.14292139   0.85710024    1.1320033   -5.3453517    6.2024519    1.9891036 
 4450000   0.79728937  -0.16924961   0.86122485    1.1255436   -5.3409021     6.202127    1.9867685 
 4460000   0.80472459  -0.12113366   0.86553418      1.13604   -5.3416527    6.2071868    2.0015742 
 4470000   0.79521596   -0.1769925   0.84906505    1.1226165   -5.3535588    6.2026239    1.9716816 
 4480000   0.80194656  -0.14049791   0.85705198    1.1321182   -5.3497217    6.2067737    1.9891702 
 4490000    0.8036734  -0.14283032   0.85378217     1.134556   -5.3480398    6.2018219    1.9883382 
 4500000   0.80077253  -0.13500115   0.86600199    1.1304608   -5.3359547    6.2019567    1.9964628 
 4510000   0.79591786  -0.12499648   0.85785121    1.1236074   -5.3468419    6.2046932    1.9814586 
 4520000    0.7977553  -0.17566866   0.86258378    1.1262014   -5.3395671    6.2021508    1.9887852 
 4530000   0.80286343 -0.092369459   0.85389928    1.1334126   -5.3460804    6.1999797    1.9873119 
 4540000   0.80046403   -0.2094616   0.86336785    1.1300253   -5.3414238    6.2047917    1.9933932 
 4550000   0.80518952  -0.17381308   0.85054726    1.1366963    -5.357799    6.2083463    1.9872436 
 4560000   0.79904551  -0.12561085   0.85816129    1.1280228    -5.344052    6.2022133    1.9861841 
 4570000   0.80037469  -0.14661699   0.83207999    1.1298992   -5.3675426    6.1996226    1.9619792 
 4580000   0.79991799  -0.18224064    0.8747009    1.1292545   -5.3280679    6.2027688    2.0039554 
 4590000   0.79849371  -0.19134675   0.86002267    1.1272438   -5.3442386    6.2042613    1.9872665 
 4600000   0.79931638 -0.097149318   0.84717717    1.1284052   -5.3593032    6.2064804    1.9755823 
 4610000   0.79880605  -0.14074901   0.85245029    1.1276847   -5.3486923    6.2011426     1.980135 
 4620000   0.79608132  -0.16568517   0.85621836    1.1238382   -5.3451064    6.2013248    1.9800566 
 4630000    0.7967463   -0.2662113   0.86688826     1.124777   -5.3358313    6.2027196    1.9916652 
 4640000   0.80405256  -0.14035996   0.86075322    1.1350913   -5.3451146    6.2058678    1.9958445 
 4650000   0.80406974  -0.14344089   0.85736209    1.1351155   -5.3477781    6.2051402    1.9924776 
 4660000   0.79401863  -0.10910317   0.85350505    1.1209263    -5.353023    6.2065281    1.9744313 
 4670000   0.80232865   -0.1924322   0.85128638    1.1326576   -5.3542458    6.2055321     1.983944 
 4680000    0.8007406    -0.167724   0.85486901    1.1304158   -5.3501331    6.2050021    1.9852848 
 4690000   0.80438527  -0.11435462   0.85614026     1.135561   -5.3494329    6.2055732    1.9917012 
 4700000   0.79981832 -0.068474823   0.85638326    1.1291138   -5.3470739    6.2034571     1.985497 
 4710000     0.792321  -0.13400997   0.86347185    1.1185297   -5.3421116    6.2055834    1.9820015 
 4720000   0.79990183  -0.12038094   0.85885946    1.1292317   -5.3459373    6.2047967    1.9880911 
 4730000   0.80158071  -0.15669649   0.85955394    1.1316018   -5.3450431     6.204597    1.9911557 
 4740000   0.80353739  -0.12069856   0.84773016     1.134364   -5.3558535    6.2035837    1.9820942 
 4750000   0.79504362  -0.13028565   0.84491047    1.1223733   -5.3597024    6.2046129    1.9672837 
 4760000   0.80676121  -0.08715354   0.85031509    1.1389151   -5.3529599     6.203275    1.9892302 
 4770000   0.79564289  -0.19732777   0.86465094    1.1232193   -5.3384311    6.2030821    1.9878702 
 4780000   0.79672047  -0.11930375   0.86862944    1.1247405   -5.3354822    6.2041116    1.9933699 
 4790000   0.80024902  -0.09261293   0.85100803    1.1297218   -5.3516581    6.2026661    1.9807298 
 4800000   0.80066607  -0.13569611   0.85504795    1.1303105   -5.3485813    6.2036292    1.9853585 
 4810000   0.80250786 -0.083098973   0.85648848    1.1329106   -5.3450116       6.2015    1.9893991 
 4820000   0.79648615 -0.092272056   0.85888637    1.1244097   -5.3465804    6.2054668    1.9832961 
 4830000    0.7973458  -0.16006492   0.86809166    1.1256233   -5.3365618    6.2046535    1.9937149 
 4840000   0.80634611  -0.17707221   0.85699487    1.1383291    -5.349547    6.2065419     1.995324 
 4850000    0.7964317  -0.14782687   0.85586285    1.1243328   -5.3492602    6.2051231    1.9801957 
 4860000   0.80531373  -0.18220244     0.861275    1.1368717   -5.3410819    6.2023569    1.9981467 
 4870000   0.80329351  -0.12100537   0.86027176    1.1340197   -5.3428906    6.2031624    1.9942915 
 4880000    0.8081224  -0.11629141   0.85465421    1.1408367   -5.3494378    6.2040921    1.9954909 
 4890000   0.80142993  -0.18682656   0.86712131    1.1313889   -5.3361414    6.2032627    1.9985102 
 4900000   0.80887207  -0.13958521   0.85861972    1.1418951   -5.3460453     6.204665    2.0005148 
 4910000   0.79955172  -0.14960168   0.85423109    1.1287374   -5.3502292    6.2044603    1.9829685 
 4920000   0.79758412  -0.19609288   0.86473254    1.1259597   -5.3433072    6.2080397    1.9906923 
 4930000   0.80514036  -0.16198402    0.8680111     1.136627   -5.3350228    6.2030339    2.0046381 
 4940000   0.79856704   -0.1855727   0.85671096    1.1273473   -5.3476811     6.204392    1.9840583 
 4950000   0.80523936  -0.11601259   0.85222757    1.1367667   -5.3524726    6.2047002    1.9889943 
 4960000   0.79666044  -0.20003272   0.84611144    1.1246557   -5.3573155    6.2034269    1.9707672 
 4970000   0.80146829  -0.21527171   0.85472303     1.131443   -5.3461207    6.2008437    1.9861661 
 4980000   0.79210293  -0.13422867   0.86402091    1.1182218   -5.3440125    6.2080334    1.9822427 
 4990000   0.79593844  -0.18360909   0.85645395    1.1236365   -5.3473321     6.203786    1.9800904 
 5000000   0.80065548  -0.15219144   0.85348999    1.1302956   -5.3504104    6.2039004    1.9837856 
 5010000   0.80475532 -0.075073105   0.86212958    1.1360834   -5.3427006    6.2048302     1.998213 
 5020000   0.79964195  -0.13336004   0.85749939    1.1288648   -5.3453504    6.2028498    1.9863642 
 5030000   0.80389403 -0.046274704    0.8519343    1.1348675   -5.3549305    6.2068648    1.9868018 
 5040000   0.79790722  -0.13999139   0.86037532    1.1264158   -5.3396559    6.2000312    1.9867912 
 5050000   0.80818732 -0.078914983   0.87632869    1.1409284   -5.3305222    6.2068509    2.0172571 
 5060000   0.80247467  -0.18272067   0.85535294    1.1328638   -5.3478702    6.2032231    1.9882167 
 5070000   0.80591032 -0.097511241   0.85183167    1.1377139   -5.3519393     6.203771    1.9895456 
 5080000   0.80390841  -0.15420251   0.85556159    1.1348878   -5.3492436    6.2048052    1.9904494 
 5090000   0.79810486  -0.18191371   0.84988576    1.1266948    -5.354764    6.2046497    1.9765806 
 5100000   0.79324544  -0.11039371   0.85304864    1.1198347   -5.3520571    6.2051057    1.9728834 
 5110000   0.79793524  -0.14235722   0.86914136    1.1264554   -5.3348316    6.2039729    1.9955968 
 5120000   0.79993005  -0.19904091    0.8615294    1.1292715    -5.341415    6.2029444    1.9908009 
 5130000   0.79134926  -0.26035954   0.86148554    1.1171579   -5.3437371    6.2052227    1.9786434 
 5140000   0.79911057  -0.21646642   0.84012605    1.1281146   -5.3645606    6.2046866    1.9682407 
 5150000   0.78827695 -0.083525849   0.86497372    1.1128207   -5.3389881    6.2039618    1.9777944 
 5160000   0.79786706  -0.14722702   0.86306452    1.1263591   -5.3409794    6.2040439    1.9894237 
 5170000   0.79632467  -0.18969309   0.85752933    1.1241817   -5.3475112    6.2050405    1.9817111 
 5180000   0.79438283  -0.14968587   0.87007133    1.1214404   -5.3361339    6.2062052    1.9915118 
 5190000   0.79988335  -0.15002859   0.87417001    1.1292056   -5.3282524    6.2024224    2.0033756 
 5200000   0.79036315  -0.12783982   0.85542846    1.1157658   -5.3464268    6.2018552    1.9711942 
 5210000    0.7968535  -0.17885609   0.86376369    1.1249283    -5.339773    6.2035367     1.988692 
 5220000   0.80294153  -0.17102794    0.8578033    1.1335228   -5.3433315    6.2011348    1.9913261 
 5230000   0.79379403  -0.15774921   0.86382861    1.1206092     -5.34141    6.2052387    1.9844378 
 5240000   0.80123199   -0.1388886   0.84593692    1.1311095   -5.3565104    6.2024474    1.9770464 
 5250000   0.80029412  -0.15066335   0.86107214    1.1297855   -5.3411749     6.202247    1.9908576 
 5260000   0.80009584   -0.2075572   0.86771612    1.1295055   -5.3373661    6.2050822    1.9972217 
 5270000   0.79903742  -0.12260801   0.85248788    1.1280114   -5.3523305    6.2048184    1.9804992 
 5280000   0.80589544  -0.08982076   0.86611514    1.1376929   -5.3350794    6.2011945     2.003808 
 5290000   0.81041425  -0.21092101   0.85435522    1.1440722   -5.3477561    6.2021113    1.9984274 
 5300000   0.80525617 -0.085603652   0.86547337    1.1367904   -5.3370736    6.2025469    2.0022638 
 5310000   0.79940148 -0.072343229   0.85499279    1.1285253   -5.3539963    6.2089891    1.9835181 
 5320000   0.80361228 -0.095399655   0.84944425    1.1344697   -5.3550334    6.2044776     1.983914 
 5330000   0.79351014  -0.12499934   0.86084015    1.1202084   -5.3426968    6.2035369    1.9810486 
 5340000   0.79971502  -0.18058285   0.87370953    1.1289679   -5.3298095     6.203519    2.0026775 
 5350000   0.80122973  -0.18910303   0.86192805    1.1311063   -5.3449614    6.2068894    1.9930343 
 5360000   0.79990737  -0.11823349   0.85634967    1.1292395   -5.3496141    6.2059638    1.9855891 
 5370000   0.79704518 -0.092491636   0.87211008    1.1251989   -5.3329347    6.2050448     1.997309 
 5380000   0.79224617  -0.11999729   0.86737336    1.1184241   -5.3382644    6.2056378    1.9857974 
 5390000   0.80502131  -0.12121556   0.86133596    1.1364589   -5.3452772    6.2066132    1.9977948 
 5400000   0.79779562  -0.15902174   0.86324535    1.1262583   -5.3433862    6.2066315    1.9895036 
 5410000    0.8069709  -0.12245764   0.85495334    1.1392111   -5.3448399    6.1997932    1.9941645 
 5420000   0.80438448  -0.13669117   0.85777451    1.1355599   -5.3510214    6.2087959    1.9933344 
 5430000   0.79753088  -0.13753472   0.84935135    1.1258846    -5.352086    6.2014374    1.9752359 
 5440000   0.80017375  -0.22584916   0.86404103    1.1296155   -5.3418915    6.2059326    1.9936566 
 5450000   0.80233732  -0.22407799   0.84641738    1.1326699   -5.3594397     6.205857    1.9790872 
 5460000   0.79924441  -0.06012643   0.86442893    1.1283036   -5.3384534    6.2028824    1.9927325 
 5470000   0.79527957  -0.15699123   0.85399347    1.1227064    -5.349375    6.2033685    1.9766998 
 5480000   0.79781027  -0.20609342   0.87121431     1.126279   -5.3340256    6.2052399    1.9974933 
 5490000   0.79622483  -0.14282959   0.86147707    1.1240408   -5.3411982    6.2026753    1.9855179 
 5500000   0.80355405 -0.072836589   0.86606447    1.1343875   -5.3380006     6.204065     2.000452 
 5510000    0.8024165  -0.14669775   0.86702173    1.1327816   -5.3350335    6.2020552    1.9998034 
 5520000   0.80030883  -0.09821542   0.85276763    1.1298062    -5.352087    6.2048547    1.9825738 
 5530000   0.80706611  -0.10044453   0.86157053    1.1393456   -5.3434038    6.2049744    2.0009161 
 5540000   0.79479612  -0.24479927   0.85339219    1.1220239   -5.3544538     6.207846     1.975416 
 5550000   0.80707093  -0.09338976   0.85911818    1.1393524   -5.3461211    6.2052393    1.9984705 
 5560000   0.79862601  -0.14178797   0.87175312    1.1274306   -5.3339567    6.2057098    1.9991837 
 5570000   0.80704402 -0.068653058   0.87422589    1.1393144   -5.3322089    6.2064348    2.0135403 
 5580000   0.79547166  -0.12418876   0.87527098    1.1229775   -5.3315201    6.2067911    1.9982485 
 5590000   0.80074826  -0.16849249   0.83793715    1.1304266   -5.3650732    6.2030104    1.9683637 
 5600000    0.7995842   -0.2456949   0.85411031    1.1287832   -5.3505957     6.204706    1.9828936 
 5610000   0.80384692  -0.14599307   0.86313262     1.134801   -5.3402662    6.2033988    1.9979336 
 5620000   0.79306352  -0.14394882   0.87144606    1.1195779   -5.3340273    6.2054733     1.991024 
 5630000      0.80084  -0.15045234   0.87471589    1.1305561   -5.3293115    6.2040274     2.005272 
 5640000   0.79770664  -0.20144899   0.86684533    1.1261327   -5.3386082    6.2054535     1.992978 
 5650000   0.79922029  -0.10434246   0.85921166    1.1282695   -5.3429327    6.2021443    1.9874812 
 5660000   0.79835174  -0.10572715   0.87237607    1.1270434    -5.334007    6.2063831    1.9994194 
 5670000   0.80078146  -0.10543291   0.86254017    1.1304734   -5.3429524    6.2054926    1.9930136 
 5680000   0.79949432  -0.13020836    0.8613207    1.1286564   -5.3424869    6.2038076    1.9899771 
 5690000   0.79798686  -0.16915409   0.86747234    1.1265283   -5.3349926     6.202465    1.9940006 
 5700000   0.79775712  -0.13452598   0.87158195    1.1262039   -5.3320298    6.2036118    1.9977859 
 5710000   0.79876773  -0.10275828   0.84893695    1.1276306   -5.3562536    6.2051905    1.9765676 
 5720000   0.80165573 -0.099263305     0.854081    1.1317077   -5.3503907    6.2044717    1.9857887 
 5730000   0.80461471  -0.15719364   0.85519423    1.1358849   -5.3513301    6.2065244    1.9910791 
 5740000   0.79914734  -0.15140068   0.85496395    1.1281665    -5.349371     6.204335    1.9831305 
 5750000   0.79579585  -0.14351366   0.86519475    1.1234352   -5.3417799    6.2069746    1.9886299 
 5760000   0.79649671 -0.094836135   0.83668713    1.1244246    -5.367386    6.2040731    1.9611117 
 5770000   0.79453082  -0.18320943   0.85546558    1.1216493   -5.3480484    6.2035139    1.9771149 
 5780000   0.80111722  -0.18242378   0.85332228    1.1309474   -5.3516705    6.2049928    1.9842697 
 5790000   0.79865814  -0.15132982   0.86345851    1.1274759   -5.3418455     6.205304    1.9909344 
 5800000   0.79716504  -0.18467492   0.86033744    1.1253681   -5.3462566    6.2065941    1.9857055 
 5810000   0.80322084  -0.13308544   0.85269797    1.1339171   -5.3513274    6.2040254    1.9866151 
 5820000   0.80097902  -0.14220127   0.85605291    1.1307523   -5.3502592    6.2063121    1.9868052 
 5830000   0.79418672  -0.10825476   0.86228589    1.1211636   -5.3406385    6.2029244    1.9834495 
 5840000    0.8000636  -0.10716688   0.85545607      1.12946   -5.3507123    6.2061684    1.9849161 
 5850000   0.80254378  -0.14998809   0.85601589    1.1329613   -5.3489119    6.2049277    1.9889772 
 5860000   0.79576156  -0.14935377   0.85954515    1.1233868   -5.3452179    6.2047631    1.9829319 
 5870000   0.80478243 -0.075723542    0.8564174    1.1361217   -5.3486931    6.2051105    1.9925391 
 5880000   0.79966559  -0.14409015   0.86506017    1.1288982   -5.3381032    6.2031634    1.9939583 
 5890000   0.80063516  -0.18493386   0.86285994    1.1302669   -5.3417903    6.2046502    1.9931268 
 5900000    0.7941617   -0.2132289   0.85599424    1.1211282   -5.3486374    6.2046316    1.9771225 
 5910000   0.79567648  -0.15068005   0.86498255    1.1232667   -5.3432566    6.2082392    1.9882492 
 5920000   0.80143045  -0.16520396   0.86469098    1.1313896   -5.3397811    6.2044721    1.9960806 
 5930000   0.79923026 -0.066023801   0.84807502    1.1282836   -5.3528337    6.2009087    1.9763586 
 5940000   0.80525267   -0.1909293   0.87295524    1.1367855   -5.3329584    6.2059136    2.0097407 
 5950000   0.79636047  -0.13348366   0.84999782    1.1242323   -5.3546854    6.2046832    1.9742301 
 5960000   0.79975959  -0.18378807   0.86375723    1.1290309   -5.3396398     6.203397    1.9927881 
 5970000   0.80167458  -0.13124356   0.86646521    1.1317343   -5.3374596    6.2039248    1.9981995 
 5980000   0.79973243  -0.14463989   0.85105382    1.1289925   -5.3478615    6.1989153    1.9800463 
 5990000   0.80186198  -0.18389727   0.86762007    1.1319988   -5.3350816    6.2027017    1.9996189 
 6000000   0.80272053   -0.1314157   0.85777471    1.1332108   -5.3449037    6.2026784    1.9909856 
Loop time of 64371.4 on 216 procs for 6000000 steps with 28900 atoms

Performance: 40266.315 tau/day, 93.209 timesteps/s
99.9% CPU use with 216 MPI tasks x 1 OpenMP threads

MPI task timing breakdown:
Section |  min time  |  avg time  |  max time  |%varavg| %total
---------------------------------------------------------------
Pair    | 708.95     | 870.18     | 1039       | 220.4 |  1.35
Bond    | 15.354     | 18.542     | 22.988     |  32.0 |  0.03
Kspace  | 57281      | 57527      | 57700      |  31.7 | 89.37
Neigh   | 761.13     | 793.41     | 833.78     |  55.6 |  1.23
Comm    | 1282       | 1530.4     | 1737.9     | 299.5 |  2.38
Output  | 2.4729     | 2.5195     | 2.5308     |   0.4 |  0.00
Modify  | 2956.1     | 3111.4     | 3290.4     | 138.4 |  4.83
Other   |            | 517.8      |            |       |  0.80

Nlocal:    133.796 ave 192 max 9 min
Histogram: 2 3 1 1 6 14 94 62 26 7
Nghost:    974.806 ave 1169 max 425 min
Histogram: 2 0 3 4 8 7 29 88 63 12
Neighs:    5139.4 ave 9231 max 71 min
Histogram: 4 2 4 13 48 73 38 24 8 2

Total # of neighbors = 1110110
Ave neighs/atom = 38.4121
Ave special neighs/atom = 0.602076
Neighbor list builds = 805857
Dangerous builds = 0
System init for write_restart ...
PPPM initialization ...
  using 12-bit tables for long-range coulomb (src/kspace.cpp:332)
  G vector (1/distance) = 1.17992
  grid = 100 100 100
  stencil order = 5
  estimated absolute RMS force accuracy = 0.000122379
  estimated relative force accuracy = 0.000122379
  using double precision FFTW3
  3d grid and FFT values/proc = 12167 5400
WARNING: Neighbor exclusions used with KSpace solver may give inconsistent Coulombic energies (src/neighbor.cpp:486)
Neighbor list info ...
  update every 1 steps, delay 0 steps, check yes
  max neighbors/atom: 2000, page size: 100000
  master list distance cutoff = 2.8
  ghost atom cutoff = 2.8
  binsize = 1.4, bins = 24 24 24
  12 neighbor lists, perpetual/occasional/extra = 2 10 0
  (1) pair lj/cut, perpetual
      attributes: half, newton on
      pair build: half/bin/newton
      stencil: half/bin/3d/newton
      bin: standard
  (2) pair coul/long, perpetual, skip from (1)
      attributes: half, newton on
      pair build: skip
      stencil: none
      bin: none
  (3) compute rdf, occasional, copy from (1)
      attributes: half, newton on
      pair build: copy
      stencil: none
      bin: none
  (4) compute rdf, occasional, copy from (1)
      attributes: half, newton on
      pair build: copy
      stencil: none
      bin: none
  (5) compute rdf, occasional, copy from (1)
      attributes: half, newton on
      pair build: copy
      stencil: none
      bin: none
  (6) compute rdf, occasional, copy from (1)
      attributes: half, newton on
      pair build: copy
      stencil: none
      bin: none
  (7) compute rdf, occasional, copy from (1)
      attributes: half, newton on
      pair build: copy
      stencil: none
      bin: none
  (8) compute rdf, occasional, copy from (1)
      attributes: half, newton on
      pair build: copy
      stencil: none
      bin: none
  (9) compute rdf, occasional, copy from (1)
      attributes: half, newton on
      pair build: copy
      stencil: none
      bin: none
  (10) compute rdf, occasional, copy from (1)
      attributes: half, newton on
      pair build: copy
      stencil: none
      bin: none
  (11) compute rdf, occasional, copy from (1)
      attributes: half, newton on
      pair build: copy
      stencil: none
      bin: none
  (12) compute rdf, occasional, copy from (1)
      attributes: half, newton on
      pair build: copy
      stencil: none
      bin: none
PPPM initialization ...
  using 12-bit tables for long-range coulomb (src/kspace.cpp:332)
  G vector (1/distance) = 1.17992
  grid = 100 100 100
  stencil order = 5
  estimated absolute RMS force accuracy = 0.000122379
  estimated relative force accuracy = 0.000122379
  using double precision FFTW3
  3d grid and FFT values/proc = 12167 5400
WARNING: Neighbor exclusions used with KSpace solver may give inconsistent Coulombic energies (src/neighbor.cpp:486)
Neighbor list info ...
  update every 1 steps, delay 0 steps, check yes
  max neighbors/atom: 2000, page size: 100000
  master list distance cutoff = 2.8
  ghost atom cutoff = 2.8
  binsize = 1.4, bins = 24 24 24
  12 neighbor lists, perpetual/occasional/extra = 2 10 0
  (1) pair lj/cut, perpetual
      attributes: half, newton on
      pair build: half/bin/newton
      stencil: half/bin/3d/newton
      bin: standard
  (2) pair coul/long, perpetual, skip from (1)
      attributes: half, newton on
      pair build: skip
      stencil: none
      bin: none
  (3) compute rdf, occasional, copy from (1)
      attributes: half, newton on
      pair build: copy
      stencil: none
      bin: none
  (4) compute rdf, occasional, copy from (1)
      attributes: half, newton on
      pair build: copy
      stencil: none
      bin: none
  (5) compute rdf, occasional, copy from (1)
      attributes: half, newton on
      pair build: copy
      stencil: none
      bin: none
  (6) compute rdf, occasional, copy from (1)
      attributes: half, newton on
      pair build: copy
      stencil: none
      bin: none
  (7) compute rdf, occasional, copy from (1)
      attributes: half, newton on
      pair build: copy
      stencil: none
      bin: none
  (8) compute rdf, occasional, copy from (1)
      attributes: half, newton on
      pair build: copy
      stencil: none
      bin: none
  (9) compute rdf, occasional, copy from (1)
      attributes: half, newton on
      pair build: copy
      stencil: none
      bin: none
  (10) compute rdf, occasional, copy from (1)
      attributes: half, newton on
      pair build: copy
      stencil: none
      bin: none
  (11) compute rdf, occasional, copy from (1)
      attributes: half, newton on
      pair build: copy
      stencil: none
      bin: none
  (12) compute rdf, occasional, copy from (1)
      attributes: half, newton on
      pair build: copy
      stencil: none
      bin: none
Setting up Verlet run ...
  Unit style    : lj
  Current step  : 6000000
  Time step     : 0.005
Per MPI rank memory allocation (min/avg/max) = 17.05 | 19.56 | 20.07 Mbytes
Step Lx Ly Lz Press Pxx Pyy Pzz PotEng Temp 
 6000000    32.816933    32.816933    32.816933  -0.08538065  -0.06894837  0.021869042  -0.20906262   0.85777471   0.80272053 
 6000010    33.473272    32.493606    32.493606 -0.085328352   -1.2352965     0.521813    0.4574984   0.87614862   0.80666371 
 6000020    34.129611    32.179651    32.179651 -0.0039330783   -1.4953516   0.72969413    0.7538582    0.9037945   0.82154265 
 6000030    34.785949    31.874623    31.874623  0.048770899   -1.6549458   0.89788427   0.90337418    0.9311697   0.83984923 
 6000040    35.442288    31.578109    31.578109   0.17799202   -1.5980592     1.078557    1.0534783   0.95583155   0.86292623 
 6000050    36.098627    31.289718    31.289718    0.2916379   -1.4590485    1.2310449    1.1029174   0.98018921   0.88469822 
 6000060    36.754965    31.009087    31.009087    0.3853573   -1.4156805    1.3680908    1.2036616    1.0038734   0.90617371 
 6000070    37.411304    30.735874    30.735874   0.47965045    -1.296722    1.4022892    1.3333842    1.0250944   0.92755645 
 6000080    38.067643    30.469758    30.469758   0.57098265   -1.2009957    1.4878538    1.4260898    1.0471359   0.94749834 
 6000090    38.723981    30.210436    30.210436   0.62466203   -1.1047001    1.4736208    1.5050654     1.063453   0.96978636 
 6000100     39.38032    29.957624    29.957624   0.67473317    -1.040428    1.5019659    1.5626617    1.0781237   0.99049966 
Loop time of 1.3547 on 216 procs for 100 steps with 28900 atoms

Performance: 31888.908 tau/day, 73.817 timesteps/s
99.9% CPU use with 216 MPI tasks x 1 OpenMP threads

MPI task timing breakdown:
Section |  min time  |  avg time  |  max time  |%varavg| %total
---------------------------------------------------------------
Pair    | 0.00056028 | 0.013935   | 0.03057    |   4.7 |  1.03
Bond    | 3.1471e-05 | 0.00023453 | 0.00044417 |   0.0 |  0.02
Kspace  | 0.92549    | 0.94736    | 0.9658     |   0.8 | 69.93
Neigh   | 0.041807   | 0.044238   | 0.046815   |   0.5 |  3.27
Comm    | 0.034208   | 0.042235   | 0.057245   |   2.5 |  3.12
Output  | 0.0062194  | 0.014039   | 0.018069   |   1.4 |  1.04
Modify  | 0.13509    | 0.16528    | 0.24311    |   4.1 | 12.20
Other   |            | 0.1274     |            |       |  9.40

Nlocal:    133.796 ave 190 max 9 min
Histogram: 2 3 1 1 5 17 80 71 28 8
Nghost:    980.569 ave 1143 max 429 min
Histogram: 2 0 3 2 7 9 10 74 85 24
Neighs:    5154.45 ave 9230 max 100 min
Histogram: 5 1 5 13 50 66 41 23 9 3

Total # of neighbors = 1113361
Ave neighs/atom = 38.5246
Ave special neighs/atom = 0.602076
Neighbor list builds = 49
Dangerous builds = 0
PPPM initialization ...
  using 12-bit tables for long-range coulomb (src/kspace.cpp:332)
  G vector (1/distance) = 1.18863
  grid = 120 96 96
  stencil order = 5
  estimated absolute RMS force accuracy = 0.000106105
  estimated relative force accuracy = 0.000106105
  using double precision FFTW3
  3d grid and FFT values/proc = 11025 5760
WARNING: Neighbor exclusions used with KSpace solver may give inconsistent Coulombic energies (src/neighbor.cpp:486)
Neighbor list info ...
  update every 1 steps, delay 0 steps, check yes
  max neighbors/atom: 2000, page size: 100000
  master list distance cutoff = 2.8
  ghost atom cutoff = 2.8
  binsize = 1.4, bins = 29 22 22
  12 neighbor lists, perpetual/occasional/extra = 2 10 0
  (1) pair lj/cut, perpetual
      attributes: half, newton on
      pair build: half/bin/newton
      stencil: half/bin/3d/newton
      bin: standard
  (2) pair coul/long, perpetual, skip from (1)
      attributes: half, newton on
      pair build: skip
      stencil: none
      bin: none
  (3) compute rdf, occasional, copy from (1)
      attributes: half, newton on
      pair build: copy
      stencil: none
      bin: none
  (4) compute rdf, occasional, copy from (1)
      attributes: half, newton on
      pair build: copy
      stencil: none
      bin: none
  (5) compute rdf, occasional, copy from (1)
      attributes: half, newton on
      pair build: copy
      stencil: none
      bin: none
  (6) compute rdf, occasional, copy from (1)
      attributes: half, newton on
      pair build: copy
      stencil: none
      bin: none
  (7) compute rdf, occasional, copy from (1)
      attributes: half, newton on
      pair build: copy
      stencil: none
      bin: none
  (8) compute rdf, occasional, copy from (1)
      attributes: half, newton on
      pair build: copy
      stencil: none
      bin: none
  (9) compute rdf, occasional, copy from (1)
      attributes: half, newton on
      pair build: copy
      stencil: none
      bin: none
  (10) compute rdf, occasional, copy from (1)
      attributes: half, newton on
      pair build: copy
      stencil: none
      bin: none
  (11) compute rdf, occasional, copy from (1)
      attributes: half, newton on
      pair build: copy
      stencil: none
      bin: none
  (12) compute rdf, occasional, copy from (1)
      attributes: half, newton on
      pair build: copy
      stencil: none
      bin: none
Setting up Verlet run ...
  Unit style    : lj
  Current step  : 6000100
  Time step     : 0.005
Per MPI rank memory allocation (min/avg/max) = 17 | 19.58 | 20.06 Mbytes
Step Lx Ly Lz Press Pxx Pyy Pzz PotEng Temp 
 6000100     39.38032    29.957624    29.957624   0.86517814   -1.1754876    2.4483594    1.3226626    1.0870513   0.99049966 
 6010000     39.38032    29.957624    29.957624  -0.14328504  -0.19818315 -0.070002148  -0.16166982   0.86752081   0.79807204 
 6020000     39.38032    29.957624    29.957624  -0.14969204   -0.1812447 -0.064075116   -0.2037563   0.85805737   0.79616027 
 6030000     39.38032    29.957624    29.957624  -0.17512354  -0.13478747  -0.20714167  -0.18344148   0.86243739   0.79695415 
 6040000     39.38032    29.957624    29.957624  -0.17939271   -0.2476184  -0.17391832   -0.1166414   0.85350001   0.79310785 
 6050000     39.38032    29.957624    29.957624  -0.15836488  -0.15992139  -0.13890406  -0.17626917   0.84520826   0.79936699 
 6060000     39.38032    29.957624    29.957624  -0.22439257  -0.30538641  -0.18227758  -0.18551371   0.84694456   0.79307351 
 6070000     39.38032    29.957624    29.957624  -0.10007204  -0.13547198 -0.047810087  -0.11693406   0.85725551   0.80671651 
 6080000     39.38032    29.957624    29.957624  -0.15605841  -0.20820349  -0.15517097  -0.10480076   0.86243402   0.79878851 
 6090000     39.38032    29.957624    29.957624  -0.14197114  -0.19381011 -0.092193533  -0.13990977   0.86094691   0.79856972 
 6100000     39.38032    29.957624    29.957624  -0.18095706   -0.2035697   -0.1897347  -0.14956677   0.86461694   0.79521859 
 6100100     39.38032    29.957624    29.957624  -0.17629975  -0.15507659  -0.21125716  -0.16256549   0.86624097   0.79831422 
Loop time of 1093.29 on 216 procs for 100000 steps with 28900 atoms

Performance: 39513.589 tau/day, 91.467 timesteps/s
99.9% CPU use with 216 MPI tasks x 1 OpenMP threads

MPI task timing breakdown:
Section |  min time  |  avg time  |  max time  |%varavg| %total
---------------------------------------------------------------
Pair    | 0.44217    | 14.028     | 33.531     | 144.6 |  1.28
Bond    | 0.051793   | 0.25598    | 0.4272     |  15.8 |  0.02
Kspace  | 970.08     | 989.08     | 1005.8     |  22.9 | 90.47
Neigh   | 12.252     | 12.856     | 13.547     |   7.6 |  1.18
Comm    | 22.848     | 30.686     | 44.211     |  73.8 |  2.81
Output  | 0.043967   | 0.044017   | 0.044844   |   0.0 |  0.00
Modify  | 32.863     | 37.273     | 41.73      |  30.8 |  3.41
Other   |            | 9.076      |            |       |  0.83

Nlocal:    133.796 ave 197 max 3 min
Histogram: 3 1 0 4 6 21 90 63 22 6
Nghost:    982.852 ave 1184 max 348 min
Histogram: 1 2 1 4 7 6 16 76 92 11
Neighs:    5149.38 ave 9207 max 8 min
Histogram: 4 2 7 11 37 82 41 17 11 4

Total # of neighbors = 1112265
Ave neighs/atom = 38.4867
Ave special neighs/atom = 0.602076
Neighbor list builds = 13426
Dangerous builds = 0
Total wall time: 21:05:20
